<?xml version="1.0"?>
<VTKFile type="StructuredGrid">
<StructuredGrid WholeExtent=" 0 100 0 10 0 0">
<Piece Extent=" 0 100 0 10 0 0">
<Points>
<DataArray type="Float32" format="ascii" NumberOfComponents="3">
0.000000 0.000000 0.000000
0.010000 0.000000 0.000000
0.020000 0.000000 0.000000
0.030000 0.000000 0.000000
0.040000 0.000000 0.000000
0.050000 0.000000 0.000000
0.060000 0.000000 0.000000
0.070000 0.000000 0.000000
0.080000 0.000000 0.000000
0.090000 0.000000 0.000000
0.100000 0.000000 0.000000
0.110000 0.000000 0.000000
0.120000 0.000000 0.000000
0.130000 0.000000 0.000000
0.140000 0.000000 0.000000
0.150000 0.000000 0.000000
0.160000 0.000000 0.000000
0.170000 0.000000 0.000000
0.180000 0.000000 0.000000
0.190000 0.000000 0.000000
0.200000 0.000000 0.000000
0.210000 0.000000 0.000000
0.220000 0.000000 0.000000
0.230000 0.000000 0.000000
0.240000 0.000000 0.000000
0.250000 0.000000 0.000000
0.260000 0.000000 0.000000
0.270000 0.000000 0.000000
0.280000 0.000000 0.000000
0.290000 0.000000 0.000000
0.300000 0.000000 0.000000
0.310000 0.000000 0.000000
0.320000 0.000000 0.000000
0.330000 0.000000 0.000000
0.340000 0.000000 0.000000
0.350000 0.000000 0.000000
0.360000 0.000000 0.000000
0.370000 0.000000 0.000000
0.380000 0.000000 0.000000
0.390000 0.000000 0.000000
0.400000 0.000000 0.000000
0.410000 0.000000 0.000000
0.420000 0.000000 0.000000
0.430000 0.000000 0.000000
0.440000 0.000000 0.000000
0.450000 0.000000 0.000000
0.460000 0.000000 0.000000
0.470000 0.000000 0.000000
0.480000 0.000000 0.000000
0.490000 0.000000 0.000000
0.500000 0.000000 0.000000
0.510000 0.000000 0.000000
0.520000 0.000000 0.000000
0.530000 0.000000 0.000000
0.540000 0.000000 0.000000
0.550000 0.000000 0.000000
0.560000 0.000000 0.000000
0.570000 0.000000 0.000000
0.580000 0.000000 0.000000
0.590000 0.000000 0.000000
0.600000 0.000000 0.000000
0.610000 0.000000 0.000000
0.620000 0.000000 0.000000
0.630000 0.000000 0.000000
0.640000 0.000000 0.000000
0.650000 0.000000 0.000000
0.660000 0.000000 0.000000
0.670000 0.000000 0.000000
0.680000 0.000000 0.000000
0.690000 0.000000 0.000000
0.700000 0.000000 0.000000
0.710000 0.000000 0.000000
0.720000 0.000000 0.000000
0.730000 0.000000 0.000000
0.740000 0.000000 0.000000
0.750000 0.000000 0.000000
0.760000 0.000000 0.000000
0.770000 0.000000 0.000000
0.780000 0.000000 0.000000
0.790000 0.000000 0.000000
0.800000 0.000000 0.000000
0.810000 0.000000 0.000000
0.820000 0.000000 0.000000
0.830000 0.000000 0.000000
0.840000 0.000000 0.000000
0.850000 0.000000 0.000000
0.860000 0.000000 0.000000
0.870000 0.000000 0.000000
0.880000 0.000000 0.000000
0.890000 0.000000 0.000000
0.900000 0.000000 0.000000
0.910000 0.000000 0.000000
0.920000 0.000000 0.000000
0.930000 0.000000 0.000000
0.940000 0.000000 0.000000
0.950000 0.000000 0.000000
0.960000 0.000000 0.000000
0.970000 0.000000 0.000000
0.980000 0.000000 0.000000
0.990000 0.000000 0.000000
1.000000 0.000000 0.000000
0.000000 0.010000 0.000000
0.010000 0.010000 0.000000
0.020000 0.010000 0.000000
0.030000 0.010000 0.000000
0.040000 0.010000 0.000000
0.050000 0.010000 0.000000
0.060000 0.010000 0.000000
0.070000 0.010000 0.000000
0.080000 0.010000 0.000000
0.090000 0.010000 0.000000
0.100000 0.010000 0.000000
0.110000 0.010000 0.000000
0.120000 0.010000 0.000000
0.130000 0.010000 0.000000
0.140000 0.010000 0.000000
0.150000 0.010000 0.000000
0.160000 0.010000 0.000000
0.170000 0.010000 0.000000
0.180000 0.010000 0.000000
0.190000 0.010000 0.000000
0.200000 0.010000 0.000000
0.210000 0.010000 0.000000
0.220000 0.010000 0.000000
0.230000 0.010000 0.000000
0.240000 0.010000 0.000000
0.250000 0.010000 0.000000
0.260000 0.010000 0.000000
0.270000 0.010000 0.000000
0.280000 0.010000 0.000000
0.290000 0.010000 0.000000
0.300000 0.010000 0.000000
0.310000 0.010000 0.000000
0.320000 0.010000 0.000000
0.330000 0.010000 0.000000
0.340000 0.010000 0.000000
0.350000 0.010000 0.000000
0.360000 0.010000 0.000000
0.370000 0.010000 0.000000
0.380000 0.010000 0.000000
0.390000 0.010000 0.000000
0.400000 0.010000 0.000000
0.410000 0.010000 0.000000
0.420000 0.010000 0.000000
0.430000 0.010000 0.000000
0.440000 0.010000 0.000000
0.450000 0.010000 0.000000
0.460000 0.010000 0.000000
0.470000 0.010000 0.000000
0.480000 0.010000 0.000000
0.490000 0.010000 0.000000
0.500000 0.010000 0.000000
0.510000 0.010000 0.000000
0.520000 0.010000 0.000000
0.530000 0.010000 0.000000
0.540000 0.010000 0.000000
0.550000 0.010000 0.000000
0.560000 0.010000 0.000000
0.570000 0.010000 0.000000
0.580000 0.010000 0.000000
0.590000 0.010000 0.000000
0.600000 0.010000 0.000000
0.610000 0.010000 0.000000
0.620000 0.010000 0.000000
0.630000 0.010000 0.000000
0.640000 0.010000 0.000000
0.650000 0.010000 0.000000
0.660000 0.010000 0.000000
0.670000 0.010000 0.000000
0.680000 0.010000 0.000000
0.690000 0.010000 0.000000
0.700000 0.010000 0.000000
0.710000 0.010000 0.000000
0.720000 0.010000 0.000000
0.730000 0.010000 0.000000
0.740000 0.010000 0.000000
0.750000 0.010000 0.000000
0.760000 0.010000 0.000000
0.770000 0.010000 0.000000
0.780000 0.010000 0.000000
0.790000 0.010000 0.000000
0.800000 0.010000 0.000000
0.810000 0.010000 0.000000
0.820000 0.010000 0.000000
0.830000 0.010000 0.000000
0.840000 0.010000 0.000000
0.850000 0.010000 0.000000
0.860000 0.010000 0.000000
0.870000 0.010000 0.000000
0.880000 0.010000 0.000000
0.890000 0.010000 0.000000
0.900000 0.010000 0.000000
0.910000 0.010000 0.000000
0.920000 0.010000 0.000000
0.930000 0.010000 0.000000
0.940000 0.010000 0.000000
0.950000 0.010000 0.000000
0.960000 0.010000 0.000000
0.970000 0.010000 0.000000
0.980000 0.010000 0.000000
0.990000 0.010000 0.000000
1.000000 0.010000 0.000000
0.000000 0.020000 0.000000
0.010000 0.020000 0.000000
0.020000 0.020000 0.000000
0.030000 0.020000 0.000000
0.040000 0.020000 0.000000
0.050000 0.020000 0.000000
0.060000 0.020000 0.000000
0.070000 0.020000 0.000000
0.080000 0.020000 0.000000
0.090000 0.020000 0.000000
0.100000 0.020000 0.000000
0.110000 0.020000 0.000000
0.120000 0.020000 0.000000
0.130000 0.020000 0.000000
0.140000 0.020000 0.000000
0.150000 0.020000 0.000000
0.160000 0.020000 0.000000
0.170000 0.020000 0.000000
0.180000 0.020000 0.000000
0.190000 0.020000 0.000000
0.200000 0.020000 0.000000
0.210000 0.020000 0.000000
0.220000 0.020000 0.000000
0.230000 0.020000 0.000000
0.240000 0.020000 0.000000
0.250000 0.020000 0.000000
0.260000 0.020000 0.000000
0.270000 0.020000 0.000000
0.280000 0.020000 0.000000
0.290000 0.020000 0.000000
0.300000 0.020000 0.000000
0.310000 0.020000 0.000000
0.320000 0.020000 0.000000
0.330000 0.020000 0.000000
0.340000 0.020000 0.000000
0.350000 0.020000 0.000000
0.360000 0.020000 0.000000
0.370000 0.020000 0.000000
0.380000 0.020000 0.000000
0.390000 0.020000 0.000000
0.400000 0.020000 0.000000
0.410000 0.020000 0.000000
0.420000 0.020000 0.000000
0.430000 0.020000 0.000000
0.440000 0.020000 0.000000
0.450000 0.020000 0.000000
0.460000 0.020000 0.000000
0.470000 0.020000 0.000000
0.480000 0.020000 0.000000
0.490000 0.020000 0.000000
0.500000 0.020000 0.000000
0.510000 0.020000 0.000000
0.520000 0.020000 0.000000
0.530000 0.020000 0.000000
0.540000 0.020000 0.000000
0.550000 0.020000 0.000000
0.560000 0.020000 0.000000
0.570000 0.020000 0.000000
0.580000 0.020000 0.000000
0.590000 0.020000 0.000000
0.600000 0.020000 0.000000
0.610000 0.020000 0.000000
0.620000 0.020000 0.000000
0.630000 0.020000 0.000000
0.640000 0.020000 0.000000
0.650000 0.020000 0.000000
0.660000 0.020000 0.000000
0.670000 0.020000 0.000000
0.680000 0.020000 0.000000
0.690000 0.020000 0.000000
0.700000 0.020000 0.000000
0.710000 0.020000 0.000000
0.720000 0.020000 0.000000
0.730000 0.020000 0.000000
0.740000 0.020000 0.000000
0.750000 0.020000 0.000000
0.760000 0.020000 0.000000
0.770000 0.020000 0.000000
0.780000 0.020000 0.000000
0.790000 0.020000 0.000000
0.800000 0.020000 0.000000
0.810000 0.020000 0.000000
0.820000 0.020000 0.000000
0.830000 0.020000 0.000000
0.840000 0.020000 0.000000
0.850000 0.020000 0.000000
0.860000 0.020000 0.000000
0.870000 0.020000 0.000000
0.880000 0.020000 0.000000
0.890000 0.020000 0.000000
0.900000 0.020000 0.000000
0.910000 0.020000 0.000000
0.920000 0.020000 0.000000
0.930000 0.020000 0.000000
0.940000 0.020000 0.000000
0.950000 0.020000 0.000000
0.960000 0.020000 0.000000
0.970000 0.020000 0.000000
0.980000 0.020000 0.000000
0.990000 0.020000 0.000000
1.000000 0.020000 0.000000
0.000000 0.030000 0.000000
0.010000 0.030000 0.000000
0.020000 0.030000 0.000000
0.030000 0.030000 0.000000
0.040000 0.030000 0.000000
0.050000 0.030000 0.000000
0.060000 0.030000 0.000000
0.070000 0.030000 0.000000
0.080000 0.030000 0.000000
0.090000 0.030000 0.000000
0.100000 0.030000 0.000000
0.110000 0.030000 0.000000
0.120000 0.030000 0.000000
0.130000 0.030000 0.000000
0.140000 0.030000 0.000000
0.150000 0.030000 0.000000
0.160000 0.030000 0.000000
0.170000 0.030000 0.000000
0.180000 0.030000 0.000000
0.190000 0.030000 0.000000
0.200000 0.030000 0.000000
0.210000 0.030000 0.000000
0.220000 0.030000 0.000000
0.230000 0.030000 0.000000
0.240000 0.030000 0.000000
0.250000 0.030000 0.000000
0.260000 0.030000 0.000000
0.270000 0.030000 0.000000
0.280000 0.030000 0.000000
0.290000 0.030000 0.000000
0.300000 0.030000 0.000000
0.310000 0.030000 0.000000
0.320000 0.030000 0.000000
0.330000 0.030000 0.000000
0.340000 0.030000 0.000000
0.350000 0.030000 0.000000
0.360000 0.030000 0.000000
0.370000 0.030000 0.000000
0.380000 0.030000 0.000000
0.390000 0.030000 0.000000
0.400000 0.030000 0.000000
0.410000 0.030000 0.000000
0.420000 0.030000 0.000000
0.430000 0.030000 0.000000
0.440000 0.030000 0.000000
0.450000 0.030000 0.000000
0.460000 0.030000 0.000000
0.470000 0.030000 0.000000
0.480000 0.030000 0.000000
0.490000 0.030000 0.000000
0.500000 0.030000 0.000000
0.510000 0.030000 0.000000
0.520000 0.030000 0.000000
0.530000 0.030000 0.000000
0.540000 0.030000 0.000000
0.550000 0.030000 0.000000
0.560000 0.030000 0.000000
0.570000 0.030000 0.000000
0.580000 0.030000 0.000000
[...]
<CellData Scalars=" varID varIU varIV">
<DataArray type="Float32" Name="varID" format="ascii">
0.027716 0.030540 0.038452 0.054831 0.084665 0.136461 0.227480 0.405930 0.809702 1.630521 1.996631 1.343015 1.021752 1.000441 1.000000 1.000000 1.000000 1.000000 1.000000 1.000000 1.000000 1.000000 1.000000 1.000000 1.000000 1.000000 1.000000 1.000000 1.000000 1.000000 1.000000 1.000000 1.000000 1.000000 1.000000 1.000000 1.000000 1.000000 1.000000 1.000000 1.000000 1.000000 1.000000 1.000000 1.000000 1.000000 1.000000 1.000000 1.000000 1.000000 1.000000 1.000000 1.000000 1.000000 1.000000 1.000000 1.000000 1.000000 1.000000 1.000000 1.000000 1.000000 1.000000 1.000000 1.000000 1.000000 1.000000 1.000000 1.000000 1.000000 1.000000 1.000000 1.000000 1.000000 1.000000 1.000000 1.000000 1.000000 1.000000 1.000000 1.000000 1.000000 1.000000 1.000000 1.000000 1.000000 1.000000 1.000000 1.000000 1.000000 1.000000 1.000000 1.000000 1.000000 1.000000 1.000000 1.000000 1.000000 1.000000 1.000000 
0.030783 0.034932 0.045773 0.067355 0.105261 0.168940 0.277703 0.488999 0.968762 1.831261 2.022153 1.253470 1.013446 1.000186 1.000000 1.000000 1.000000 1.000000 1.000000 1.000000 1.000000 1.000000 1.000000 1.000000 1.000000 1.000000 1.000000 1.000000 1.000000 1.000000 1.000000 1.000000 1.000000 1.000000 1.000000 1.000000 1.000000 1.000000 1.000000 1.000000 1.000000 1.000000 1.000000 1.000000 1.000000 1.000000 1.000000 1.000000 1.000000 1.000000 1.000000 1.000000 1.000000 1.000000 1.000000 1.000000 1.000000 1.000000 1.000000 1.000000 1.000000 1.000000 1.000000 1.000000 1.000000 1.000000 1.000000 1.000000 1.000000 1.000000 1.000000 1.000000 1.000000 1.000000 1.000000 1.000000 1.000000 1.000000 1.000000 1.000000 1.000000 1.000000 1.000000 1.000000 1.000000 1.000000 1.000000 1.000000 1.000000 1.000000 1.000000 1.000000 1.000000 1.000000 1.000000 1.000000 1.000000 1.000000 1.000000 1.000000 
0.039619 0.046820 0.064093 0.096776 0.151816 0.240952 0.389237 0.683975 1.364892 2.150149 1.861901 1.101828 1.003683 1.000016 1.000000 1.000000 1.000000 1.000000 1.000000 1.000000 1.000000 1.000000 1.000000 1.000000 1.000000 1.000000 1.000000 1.000000 1.000000 1.000000 1.000000 1.000000 1.000000 1.000000 1.000000 1.000000 1.000000 1.000000 1.000000 1.000000 1.000000 1.000000 1.000000 1.000000 1.000000 1.000000 1.000000 1.000000 1.000000 1.000000 1.000000 1.000000 1.000000 1.000000 1.000000 1.000000 1.000000 1.000000 1.000000 1.000000 1.000000 1.000000 1.000000 1.000000 1.000000 1.000000 1.000000 1.000000 1.000000 1.000000 1.000000 1.000000 1.000000 1.000000 1.000000 1.000000 1.000000 1.000000 1.000000 1.000000 1.000000 1.000000 1.000000 1.000000 1.000000 1.000000 1.000000 1.000000 1.000000 1.000000 1.000000 1.000000 1.000000 1.000000 1.000000 1.000000 1.000000 1.000000 1.000000 1.000000 
0.058381 0.071137 0.099809 0.151431 0.234658 0.365964 0.589236 1.087101 2.020076 2.280285 1.409783 1.023186 1.000349 1.000000 1.000000 1.000000 1.000000 1.000000 1.000000 1.000000 1.000000 1.000000 1.000000 1.000000 1.000000 1.000000 1.000000 1.000000 1.000000 1.000000 1.000000 1.000000 1.000000 1.000000 1.000000 1.000000 1.000000 1.000000 1.000000 1.000000 1.000000 1.000000 1.000000 1.000000 1.000000 1.000000 1.000000 1.000000 1.000000 1.000000 1.000000 1.000000 1.000000 1.000000 1.000000 1.000000 1.000000 1.000000 1.000000 1.000000 1.000000 1.000000 1.000000 1.000000 1.000000 1.000000 1.000000 1.000000 1.000000 1.000000 1.000000 1.000000 1.000000 1.000000 1.000000 1.000000 1.000000 1.000000 1.000000 1.000000 1.000000 1.000000 1.000000 1.000000 1.000000 1.000000 1.000000 1.000000 1.000000 1.000000 1.000000 1.000000 1.000000 1.000000 1.000000 1.000000 1.000000 1.000000 1.000000 1.000000 
0.092461 0.114163 0.160938 0.241629 0.367640 0.569060 0.976373 1.840755 2.423752 1.856444 1.077724 1.002259 1.000003 1.000000 1.000000 1.000000 1.000000 1.000000 1.000000 1.000000 1.000000 1.000000 1.000000 1.000000 1.000000 1.000000 1.000000 1.000000 1.000000 1.000000 1.000000 1.000000 1.000000 1.000000 1.000000 1.000000 1.000000 1.000000 1.000000 1.000000 1.000000 1.000000 1.000000 1.000000 1.000000 1.000000 1.000000 1.000000 1.000000 1.000000 1.000000 1.000000 1.000000 1.000000 1.000000 1.000000 1.000000 1.000000 1.000000 1.000000 1.000000 1.000000 1.000000 1.000000 1.000000 1.000000 1.000000 1.000000 1.000000 1.000000 1.000000 1.000000 1.000000 1.000000 1.000000 1.000000 1.000000 1.000000 1.000000 1.000000 1.000000 1.000000 1.000000 1.000000 1.000000 1.000000 1.000000 1.000000 1.000000 1.000000 1.000000 1.000000 1.000000 1.000000 1.000000 1.000000 1.000000 1.000000 1.000000 1.000000 
0.150414 0.185435 0.259915 0.384796 0.586657 0.968653 1.774348 2.437533 2.179044 1.171311 1.007554 1.000050 1.000000 1.000000 1.000000 1.000000 1.000000 1.000000 1.000000 1.000000 1.000000 1.000000 1.000000 1.000000 1.000000 1.000000 1.000000 1.000000 1.000000 1.000000 1.000000 1.000000 1.000000 1.000000 1.000000 1.000000 1.000000 1.000000 1.000000 1.000000 1.000000 1.000000 1.000000 1.000000 1.000000 1.000000 1.000000 1.000000 1.000000 1.000000 1.000000 1.000000 1.000000 1.000000 1.000000 1.000000 1.000000 1.000000 1.000000 1.000000 1.000000 1.000000 1.000000 1.000000 1.000000 1.000000 1.000000 1.000000 1.000000 1.000000 1.000000 1.000000 1.000000 1.000000 1.000000 1.000000 1.000000 1.000000 1.000000 1.000000 1.000000 1.000000 1.000000 1.000000 1.000000 1.000000 1.000000 1.000000 1.000000 1.000000 1.000000 1.000000 1.000000 1.000000 1.000000 1.000000 1.000000 1.000000 1.000000 1.000000 
0.249803 0.304018 0.423234 0.633597 1.034559 1.806122 2.454598 2.321409 1.264840 1.015324 1.000222 1.000000 1.000000 1.000000 1.000000 1.000000 1.000000 1.000000 1.000000 1.000000 1.000000 1.000000 1.000000 1.000000 1.000000 1.000000 1.000000 1.000000 1.000000 1.000000 1.000000 1.000000 1.000000 1.000000 1.000000 1.000000 1.000000 1.000000 1.000000 1.000000 1.000000 1.000000 1.000000 1.000000 1.000000 1.000000 1.000000 1.000000 1.000000 1.000000 1.000000 1.000000 1.000000 1.000000 1.000000 1.000000 1.000000 1.000000 1.000000 1.000000 1.000000 1.000000 1.000000 1.000000 1.000000 1.000000 1.000000 1.000000 1.000000 1.000000 1.000000 1.000000 1.000000 1.000000 1.000000 1.000000 1.000000 1.000000 1.000000 1.000000 1.000000 1.000000 1.000000 1.000000 1.000000 1.000000 1.000000 1.000000 1.000000 1.000000 1.000000 1.000000 1.000000 1.000000 1.000000 1.000000 1.000000 1.000000 1.000000 1.000000 
0.443090 0.533940 0.750998 1.190471 1.950223 2.461752 2.300860 1.295499 1.020832 1.000465 1.000000 1.000000 1.000000 1.000000 1.000000 1.000000 1.000000 1.000000 1.000000 1.000000 1.000000 1.000000 1.000000 1.000000 1.000000 1.000000 1.000000 1.000000 1.000000 1.000000 1.000000 1.000000 1.000000 1.000000 1.000000 1.000000 1.000000 1.000000 1.000000 1.000000 1.000000 1.000000 1.000000 1.000000 1.000000 1.000000 1.000000 1.000000 1.000000 1.000000 1.000000 1.000000 1.000000 1.000000 1.000000 1.000000 1.000000 1.000000 1.000000 1.000000 1.000000 1.000000 1.000000 1.000000 1.000000 1.000000 1.000000 1.000000 1.000000 1.000000 1.000000 1.000000 1.000000 1.000000 1.000000 1.000000 1.000000 1.000000 1.000000 1.000000 1.000000 1.000000 1.000000 1.000000 1.000000 1.000000 1.000000 1.000000 1.000000 1.000000 1.000000 1.000000 1.000000 1.000000 1.000000 1.000000 1.000000 1.000000 1.000000 1.000000 
0.900176 1.052550 1.447066 2.099960 2.433571 2.122133 1.236243 1.019797 1.000570 1.000000 1.000000 1.000000 1.000000 1.000000 1.000000 1.000000 1.000000 1.000000 1.000000 1.000000 1.000000 1.000000 1.000000 1.000000 1.000000 1.000000 1.000000 1.000000 1.000000 1.000000 1.000000 1.000000 1.000000 1.000000 1.000000 1.000000 1.000000 1.000000 1.000000 1.000000 1.000000 1.000000 1.000000 1.000000 1.000000 1.000000 1.000000 1.000000 1.000000 1.000000 1.000000 1.000000 1.000000 1.000000 1.000000 1.000000 1.000000 1.000000 1.000000 1.000000 1.000000 1.000000 1.000000 1.000000 1.000000 1.000000 1.000000 1.000000 1.000000 1.000000 1.000000 1.000000 1.000000 1.000000 1.000000 1.000000 1.000000 1.000000 1.000000 1.000000 1.000000 1.000000 1.000000 1.000000 1.000000 1.000000 1.000000 1.000000 1.000000 1.000000 1.000000 1.000000 1.000000 1.000000 1.000000 1.000000 1.000000 1.000000 1.000000 1.000000 
2.983924 3.083457 3.076308 2.617631 1.781715 1.141999 1.013386 1.000428 1.000000 1.000000 1.000000 1.000000 1.000000 1.000000 1.000000 1.000000 1.000000 1.000000 1.000000 1.000000 1.000000 1.000000 1.000000 1.000000 1.000000 1.000000 1.000000 1.000000 1.000000 1.000000 1.000000 1.000000 1.000000 1.000000 1.000000 1.000000 1.000000 1.000000 1.000000 1.000000 1.000000 1.000000 1.000000 1.000000 1.000000 1.000000 1.000000 1.000000 1.000000 1.000000 1.000000 1.000000 1.000000 1.000000 1.000000 1.000000 1.000000 1.000000 1.000000 1.000000 1.000000 1.000000 1.000000 1.000000 1.000000 1.000000 1.000000 1.000000 1.000000 1.000000 1.000000 1.000000 1.000000 1.000000 1.000000 1.000000 1.000000 1.000000 1.000000 1.000000 1.000000 1.000000 1.000000 1.000000 1.000000 1.000000 1.000000 1.000000 1.000000 1.000000 1.000000 1.000000 1.000000 1.000000 1.000000 1.000000 1.000000 1.000000 1.000000 1.000000 
</DataArray>
<DataArray type="Float32" Name="varIU" format="ascii">
0.009397 0.032542 0.071033 0.143604 0.288509 0.577159 1.165764 2.477308 6.016258 12.157207 11.348897 1.938341 0.027908 0.000024 0.000000 0.000000 0.000000 0.000000 0.000000 0.000000 0.000000 0.000000 0.000000 0.000000 0.000000 0.000000 0.000000 0.000000 0.000000 0.000000 0.000000 0.000000 0.000000 0.000000 0.000000 0.000000 0.000000 0.000000 0.000000 0.000000 0.000000 0.000000 0.000000 0.000000 0.000000 0.000000 0.000000 0.000000 0.000000 0.000000 0.000000 0.000000 0.000000 0.000000 0.000000 0.000000 0.000000 0.000000 0.000000 0.000000 0.000000 0.000000 0.000000 0.000000 0.000000 0.000000 0.000000 0.000000 0.000000 0.000000 0.000000 0.000000 0.000000 0.000000 0.000000 0.000000 0.000000 0.000000 0.000000 0.000000 0.000000 0.000000 0.000000 0.000000 0.000000 0.000000 0.000000 0.000000 0.000000 0.000000 0.000000 0.000000 0.000000 0.000000 0.000000 0.000000 0.000000 0.000000 0.000000 0.000000 
0.010028 0.035313 0.080204 0.168045 0.343753 0.689286 1.383255 2.942722 7.062044 13.093557 10.279213 1.176471 0.011566 0.000005 0.000000 0.000000 0.000000 0.000000 0.000000 0.000000 0.000000 0.000000 0.000000 0.000000 0.000000 0.000000 0.000000 0.000000 0.000000 0.000000 0.000000 0.000000 0.000000 0.000000 0.000000 0.000000 0.000000 0.000000 0.000000 0.000000 0.000000 0.000000 0.000000 0.000000 0.000000 0.000000 0.000000 0.000000 0.000000 0.000000 0.000000 0.000000 0.000000 0.000000 0.000000 0.000000 0.000000 0.000000 0.000000 0.000000 0.000000 0.000000 0.000000 0.000000 0.000000 0.000000 0.000000 0.000000 0.000000 0.000000 0.000000 0.000000 0.000000 0.000000 0.000000 0.000000 0.000000 0.000000 0.000000 0.000000 0.000000 0.000000 0.000000 0.000000 0.000000 0.000000 0.000000 0.000000 0.000000 0.000000 0.000000 0.000000 0.000000 0.000000 0.000000 0.000000 0.000000 0.000000 0.000000 0.000000 
0.014332 0.050972 0.116934 0.246307 0.499812 0.981312 1.921401 4.133820 9.582816 14.112442 6.780227 0.308605 0.001149 0.000000 0.000000 0.000000 0.000000 0.000000 0.000000 0.000000 0.000000 0.000000 0.000000 0.000000 0.000000 0.000000 0.000000 0.000000 0.000000 0.000000 0.000000 0.000000 0.000000 0.000000 0.000000 0.000000 0.000000 0.000000 0.000000 0.000000 0.000000 0.000000 0.000000 0.000000 0.000000 0.000000 0.000000 0.000000 0.000000 0.000000 0.000000 0.000000 0.000000 0.000000 0.000000 0.000000 0.000000 0.000000 0.000000 0.000000 0.000000 0.000000 0.000000 0.000000 0.000000 0.000000 0.000000 0.000000 0.000000 0.000000 0.000000 0.000000 0.000000 0.000000 0.000000 0.000000 0.000000 0.000000 0.000000 0.000000 0.000000 0.000000 0.000000 0.000000 0.000000 0.000000 0.000000 0.000000 0.000000 0.000000 0.000000 0.000000 0.000000 0.000000 0.000000 0.000000 0.000000 0.000000 0.000000 0.000000 
0.021306 0.077426 0.180083 0.379211 0.759934 1.469371 2.906849 6.790015 13.321882 12.105394 2.017894 0.025541 0.000015 0.000000 0.000000 0.000000 0.000000 0.000000 0.000000 0.000000 0.000000 0.000000 0.000000 0.000000 0.000000 0.000000 0.000000 0.000000 0.000000 0.000000 0.000000 0.000000 0.000000 0.000000 0.000000 0.000000 0.000000 0.000000 0.000000 0.000000 0.000000 0.000000 0.000000 0.000000 0.000000 0.000000 0.000000 0.000000 0.000000 0.000000 0.000000 0.000000 0.000000 0.000000 0.000000 0.000000 0.000000 0.000000 0.000000 0.000000 0.000000 0.000000 0.000000 0.000000 0.000000 0.000000 0.000000 0.000000 0.000000 0.000000 0.000000 0.000000 0.000000 0.000000 0.000000 0.000000 0.000000 0.000000 0.000000 0.000000 0.000000 0.000000 0.000000 0.000000 0.000000 0.000000 0.000000 0.000000 0.000000 0.000000 0.000000 0.000000 0.000000 0.000000 0.000000 0.000000 0.000000 0.000000 0.000000 0.000000 
0.031529 0.115490 0.270562 0.570440 1.149303 2.293524 5.193853 11.455073 13.933387 5.305151 0.173196 0.000388 0.000000 0.000000 0.000000 0.000000 0.000000 0.000000 0.000000 0.000000 0.000000 0.000000 0.000000 0.000000 0.000000 0.000000 0.000000 0.000000 0.000000 0.000000 0.000000 0.000000 0.000000 0.000000 0.000000 0.000000 0.000000 0.000000 0.000000 0.000000 0.000000 0.000000 0.000000 0.000000 0.000000 0.000000 0.000000 0.000000 0.000000 0.000000 0.000000 0.000000 0.000000 0.000000 0.000000 0.000000 0.000000 0.000000 0.000000 0.000000 0.000000 0.000000 0.000000 0.000000 0.000000 0.000000 0.000000 0.000000 0.000000 0.000000 0.000000 0.000000 0.000000 0.000000 0.000000 0.000000 0.000000 0.000000 0.000000 0.000000 0.000000 0.000000 0.000000 0.000000 0.000000 0.000000 0.000000 0.000000 0.000000 0.000000 0.000000 0.000000 0.000000 0.000000 0.000000 0.000000 0.000000 0.000000 0.000000 0.000000 
0.046068 0.167746 0.403552 0.886499 1.883487 4.353298 9.974749 13.592881 7.943706 0.508093 0.003135 0.000000 0.000000 0.000000 0.000000 0.000000 0.000000 0.000000 0.000000 0.000000 0.000000 0.000000 0.000000 0.000000 0.000000 0.000000 0.000000 0.000000 0.000000 0.000000 0.000000 0.000000 0.000000 0.000000 0.000000 0.000000 0.000000 0.000000 0.000000 0.000000 0.000000 0.000000 0.000000 0.000000 0.000000 0.000000 0.000000 0.000000 0.000000 0.000000 0.000000 0.000000 0.000000 0.000000 0.000000 0.000000 0.000000 0.000000 0.000000 0.000000 0.000000 0.000000 0.000000 0.000000 0.000000 0.000000 0.000000 0.000000 0.000000 0.000000 0.000000 0.000000 0.000000 0.000000 0.000000 0.000000 0.000000 0.000000 0.000000 0.000000 0.000000 0.000000 0.000000 0.000000 0.000000 0.000000 0.000000 0.000000 0.000000 0.000000 0.000000 0.000000 0.000000 0.000000 0.000000 0.000000 0.000000 0.000000 0.000000 0.000000 
0.077907 0.274201 0.673290 1.594946 3.991026 9.010423 12.533845 8.694248 0.857303 0.009557 0.000005 0.000000 0.000000 0.000000 0.000000 0.000000 0.000000 0.000000 0.000000 0.000000 0.000000 0.000000 0.000000 0.000000 0.000000 0.000000 0.000000 0.000000 0.000000 0.000000 0.000000 0.000000 0.000000 0.000000 0.000000 0.000000 0.000000 0.000000 0.000000 0.000000 0.000000 0.000000 0.000000 0.000000 0.000000 0.000000 0.000000 0.000000 0.000000 0.000000 0.000000 0.000000 0.000000 0.000000 0.000000 0.000000 0.000000 0.000000 0.000000 0.000000 0.000000 0.000000 0.000000 0.000000 0.000000 0.000000 0.000000 0.000000 0.000000 0.000000 0.000000 0.000000 0.000000 0.000000 0.000000 0.000000 0.000000 0.000000 0.000000 0.000000 0.000000 0.000000 0.000000 0.000000 0.000000 0.000000 0.000000 0.000000 0.000000 0.000000 0.000000 0.000000 0.000000 0.000000 0.000000 0.000000 0.000000 0.000000 0.000000 0.000000 
0.172692 0.583601 1.521141 3.949619 8.315699 10.977876 7.647277 0.874940 0.014390 0.000017 0.000000 0.000000 0.000000 0.000000 0.000000 0.000000 0.000000 0.000000 0.000000 0.000000 0.000000 0.000000 0.000000 0.000000 0.000000 0.000000 0.000000 0.000000 0.000000 0.000000 0.000000 0.000000 0.000000 0.000000 0.000000 0.000000 0.000000 0.000000 0.000000 0.000000 0.000000 0.000000 0.000000 0.000000 0.000000 0.000000 0.000000 0.000000 0.000000 0.000000 0.000000 0.000000 0.000000 0.000000 0.000000 0.000000 0.000000 0.000000 0.000000 0.000000 0.000000 0.000000 0.000000 0.000000 0.000000 0.000000 0.000000 0.000000 0.000000 0.000000 0.000000 0.000000 0.000000 0.000000 0.000000 0.000000 0.000000 0.000000 0.000000 0.000000 0.000000 0.000000 0.000000 0.000000 0.000000 0.000000 0.000000 0.000000 0.000000 0.000000 0.000000 0.000000 0.000000 0.000000 0.000000 0.000000 0.000000 0.000000 0.000000 0.000000 
0.472069 1.600640 3.779206 7.250070 8.823514 5.285813 0.539734 0.011230 0.000021 0.000000 0.000000 0.000000 0.000000 0.000000 0.000000 0.000000 0.000000 0.000000 0.000000 0.000000 0.000000 0.000000 0.000000 0.000000 0.000000 0.000000 0.000000 0.000000 0.000000 0.000000 0.000000 0.000000 0.000000 0.000000 0.000000 0.000000 0.000000 0.000000 0.000000 0.000000 0.000000 0.000000 0.000000 0.000000 0.000000 0.000000 0.000000 0.000000 0.000000 0.000000 0.000000 0.000000 0.000000 0.000000 0.000000 0.000000 0.000000 0.000000 0.000000 0.000000 0.000000 0.000000 0.000000 0.000000 0.000000 0.000000 0.000000 0.000000 0.000000 0.000000 0.000000 0.000000 0.000000 0.000000 0.000000 0.000000 0.000000 0.000000 0.000000 0.000000 0.000000 0.000000 0.000000 0.000000 0.000000 0.000000 0.000000 0.000000 0.000000 0.000000 0.000000 0.000000 0.000000 0.000000 0.000000 0.000000 0.000000 0.000000 0.000000 0.000000 
1.541690 5.222212 7.968585 6.484997 2.452652 0.207784 0.004452 0.000011 0.000000 0.000000 0.000000 0.000000 0.000000 0.000000 0.000000 0.000000 0.000000 0.000000 0.000000 0.000000 0.000000 0.000000 0.000000 0.000000 0.000000 0.000000 0.000000 0.000000 0.000000 0.000000 0.000000 0.000000 0.000000 0.000000 0.000000 0.000000 0.000000 0.000000 0.000000 0.000000 0.000000 0.000000 0.000000 0.000000 0.000000 0.000000 0.000000 0.000000 0.000000 0.000000 0.000000 0.000000 0.000000 0.000000 0.000000 0.000000 0.000000 0.000000 0.000000 0.000000 0.000000 0.000000 0.000000 0.000000 0.000000 0.000000 0.000000 0.000000 0.000000 0.000000 0.000000 0.000000 0.000000 0.000000 0.000000 0.000000 0.000000 0.000000 0.000000 0.000000 0.000000 0.000000 0.000000 0.000000 0.000000 0.000000 0.000000 0.000000 0.000000 0.000000 0.000000 0.000000 0.000000 0.000000 0.000000 0.000000 0.000000 0.000000 0.000000 0.000000 
</DataArray>
<DataArray type="Float32" Name="varIV" format="ascii">
0.010316 0.010268 0.012572 0.017641 0.026447 0.041819 0.071999 0.157727 0.424007 0.853017 0.645825 0.055709 0.000195 0.000000 0.000000 0.000000 0.000000 0.000000 0.000000 0.000000 0.000000 0.000000 0.000000 0.000000 0.000000 0.000000 0.000000 0.000000 0.000000 0.000000 0.000000 0.000000 0.000000 0.000000 0.000000 0.000000 0.000000 0.000000 0.000000 0.000000 0.000000 0.000000 0.000000 0.000000 0.000000 0.000000 0.000000 0.000000 0.000000 0.000000 0.000000 0.000000 0.000000 0.000000 0.000000 0.000000 0.000000 0.000000 0.000000 0.000000 0.000000 0.000000 0.000000 0.000000 0.000000 0.000000 0.000000 0.000000 0.000000 0.000000 0.000000 0.000000 0.000000 0.000000 0.000000 0.000000 0.000000 0.000000 0.000000 0.000000 0.000000 0.000000 0.000000 0.000000 0.000000 0.000000 0.000000 0.000000 0.000000 0.000000 0.000000 0.000000 0.000000 0.000000 0.000000 0.000000 0.000000 0.000000 0.000000 0.000000 