<?xml version="1.0"?>
<VTKFile type="StructuredGrid">
<StructuredGrid WholeExtent=" 0 100 0 10 0 0">
<Piece Extent=" 0 100 0 10 0 0">
<Points>
<DataArray type="Float32" format="ascii" NumberOfComponents="3">
0.000000 0.000000 0.000000
0.010000 0.000000 0.000000
0.020000 0.000000 0.000000
0.030000 0.000000 0.000000
0.040000 0.000000 0.000000
0.050000 0.000000 0.000000
0.060000 0.000000 0.000000
0.070000 0.000000 0.000000
0.080000 0.000000 0.000000
0.090000 0.000000 0.000000
0.100000 0.000000 0.000000
0.110000 0.000000 0.000000
0.120000 0.000000 0.000000
0.130000 0.000000 0.000000
0.140000 0.000000 0.000000
0.150000 0.000000 0.000000
0.160000 0.000000 0.000000
0.170000 0.000000 0.000000
0.180000 0.000000 0.000000
0.190000 0.000000 0.000000
0.200000 0.000000 0.000000
0.210000 0.000000 0.000000
0.220000 0.000000 0.000000
0.230000 0.000000 0.000000
0.240000 0.000000 0.000000
0.250000 0.000000 0.000000
0.260000 0.000000 0.000000
0.270000 0.000000 0.000000
0.280000 0.000000 0.000000
0.290000 0.000000 0.000000
0.300000 0.000000 0.000000
0.310000 0.000000 0.000000
0.320000 0.000000 0.000000
0.330000 0.000000 0.000000
0.340000 0.000000 0.000000
0.350000 0.000000 0.000000
0.360000 0.000000 0.000000
0.370000 0.000000 0.000000
0.380000 0.000000 0.000000
0.390000 0.000000 0.000000
0.400000 0.000000 0.000000
0.410000 0.000000 0.000000
0.420000 0.000000 0.000000
0.430000 0.000000 0.000000
0.440000 0.000000 0.000000
0.450000 0.000000 0.000000
0.460000 0.000000 0.000000
0.470000 0.000000 0.000000
0.480000 0.000000 0.000000
0.490000 0.000000 0.000000
0.500000 0.000000 0.000000
0.510000 0.000000 0.000000
0.520000 0.000000 0.000000
0.530000 0.000000 0.000000
0.540000 0.000000 0.000000
0.550000 0.000000 0.000000
0.560000 0.000000 0.000000
0.570000 0.000000 0.000000
0.580000 0.000000 0.000000
0.590000 0.000000 0.000000
0.600000 0.000000 0.000000
0.610000 0.000000 0.000000
0.620000 0.000000 0.000000
0.630000 0.000000 0.000000
0.640000 0.000000 0.000000
0.650000 0.000000 0.000000
0.660000 0.000000 0.000000
0.670000 0.000000 0.000000
0.680000 0.000000 0.000000
0.690000 0.000000 0.000000
0.700000 0.000000 0.000000
0.710000 0.000000 0.000000
0.720000 0.000000 0.000000
0.730000 0.000000 0.000000
0.740000 0.000000 0.000000
0.750000 0.000000 0.000000
0.760000 0.000000 0.000000
0.770000 0.000000 0.000000
0.780000 0.000000 0.000000
0.790000 0.000000 0.000000
0.800000 0.000000 0.000000
0.810000 0.000000 0.000000
0.820000 0.000000 0.000000
0.830000 0.000000 0.000000
0.840000 0.000000 0.000000
0.850000 0.000000 0.000000
0.860000 0.000000 0.000000
0.870000 0.000000 0.000000
0.880000 0.000000 0.000000
0.890000 0.000000 0.000000
0.900000 0.000000 0.000000
0.910000 0.000000 0.000000
0.920000 0.000000 0.000000
0.930000 0.000000 0.000000
0.940000 0.000000 0.000000
0.950000 0.000000 0.000000
0.960000 0.000000 0.000000
0.970000 0.000000 0.000000
0.980000 0.000000 0.000000
0.990000 0.000000 0.000000
1.000000 0.000000 0.000000
0.000000 0.010000 0.000000
0.010000 0.010000 0.000000
0.020000 0.010000 0.000000
0.030000 0.010000 0.000000
0.040000 0.010000 0.000000
0.050000 0.010000 0.000000
0.060000 0.010000 0.000000
0.070000 0.010000 0.000000
0.080000 0.010000 0.000000
0.090000 0.010000 0.000000
0.100000 0.010000 0.000000
0.110000 0.010000 0.000000
0.120000 0.010000 0.000000
0.130000 0.010000 0.000000
0.140000 0.010000 0.000000
0.150000 0.010000 0.000000
0.160000 0.010000 0.000000
0.170000 0.010000 0.000000
0.180000 0.010000 0.000000
0.190000 0.010000 0.000000
0.200000 0.010000 0.000000
0.210000 0.010000 0.000000
0.220000 0.010000 0.000000
0.230000 0.010000 0.000000
0.240000 0.010000 0.000000
0.250000 0.010000 0.000000
0.260000 0.010000 0.000000
0.270000 0.010000 0.000000
0.280000 0.010000 0.000000
0.290000 0.010000 0.000000
0.300000 0.010000 0.000000
0.310000 0.010000 0.000000
0.320000 0.010000 0.000000
0.330000 0.010000 0.000000
0.340000 0.010000 0.000000
0.350000 0.010000 0.000000
0.360000 0.010000 0.000000
0.370000 0.010000 0.000000
0.380000 0.010000 0.000000
0.390000 0.010000 0.000000
0.400000 0.010000 0.000000
0.410000 0.010000 0.000000
0.420000 0.010000 0.000000
0.430000 0.010000 0.000000
0.440000 0.010000 0.000000
0.450000 0.010000 0.000000
0.460000 0.010000 0.000000
0.470000 0.010000 0.000000
0.480000 0.010000 0.000000
0.490000 0.010000 0.000000
0.500000 0.010000 0.000000
0.510000 0.010000 0.000000
0.520000 0.010000 0.000000
0.530000 0.010000 0.000000
0.540000 0.010000 0.000000
0.550000 0.010000 0.000000
0.560000 0.010000 0.000000
0.570000 0.010000 0.000000
0.580000 0.010000 0.000000
0.590000 0.010000 0.000000
0.600000 0.010000 0.000000
0.610000 0.010000 0.000000
0.620000 0.010000 0.000000
0.630000 0.010000 0.000000
0.640000 0.010000 0.000000
0.650000 0.010000 0.000000
0.660000 0.010000 0.000000
0.670000 0.010000 0.000000
0.680000 0.010000 0.000000
0.690000 0.010000 0.000000
0.700000 0.010000 0.000000
0.710000 0.010000 0.000000
0.720000 0.010000 0.000000
0.730000 0.010000 0.000000
0.740000 0.010000 0.000000
0.750000 0.010000 0.000000
0.760000 0.010000 0.000000
0.770000 0.010000 0.000000
0.780000 0.010000 0.000000
0.790000 0.010000 0.000000
0.800000 0.010000 0.000000
0.810000 0.010000 0.000000
0.820000 0.010000 0.000000
0.830000 0.010000 0.000000
0.840000 0.010000 0.000000
0.850000 0.010000 0.000000
0.860000 0.010000 0.000000
0.870000 0.010000 0.000000
0.880000 0.010000 0.000000
0.890000 0.010000 0.000000
0.900000 0.010000 0.000000
0.910000 0.010000 0.000000
0.920000 0.010000 0.000000
0.930000 0.010000 0.000000
0.940000 0.010000 0.000000
0.950000 0.010000 0.000000
0.960000 0.010000 0.000000
0.970000 0.010000 0.000000
0.980000 0.010000 0.000000
0.990000 0.010000 0.000000
1.000000 0.010000 0.000000
0.000000 0.020000 0.000000
0.010000 0.020000 0.000000
0.020000 0.020000 0.000000
0.030000 0.020000 0.000000
0.040000 0.020000 0.000000
0.050000 0.020000 0.000000
0.060000 0.020000 0.000000
0.070000 0.020000 0.000000
0.080000 0.020000 0.000000
0.090000 0.020000 0.000000
0.100000 0.020000 0.000000
0.110000 0.020000 0.000000
0.120000 0.020000 0.000000
0.130000 0.020000 0.000000
0.140000 0.020000 0.000000
0.150000 0.020000 0.000000
0.160000 0.020000 0.000000
0.170000 0.020000 0.000000
0.180000 0.020000 0.000000
0.190000 0.020000 0.000000
0.200000 0.020000 0.000000
0.210000 0.020000 0.000000
0.220000 0.020000 0.000000
0.230000 0.020000 0.000000
0.240000 0.020000 0.000000
0.250000 0.020000 0.000000
0.260000 0.020000 0.000000
0.270000 0.020000 0.000000
0.280000 0.020000 0.000000
0.290000 0.020000 0.000000
0.300000 0.020000 0.000000
0.310000 0.020000 0.000000
0.320000 0.020000 0.000000
0.330000 0.020000 0.000000
0.340000 0.020000 0.000000
0.350000 0.020000 0.000000
0.360000 0.020000 0.000000
0.370000 0.020000 0.000000
0.380000 0.020000 0.000000
0.390000 0.020000 0.000000
0.400000 0.020000 0.000000
0.410000 0.020000 0.000000
0.420000 0.020000 0.000000
0.430000 0.020000 0.000000
0.440000 0.020000 0.000000
0.450000 0.020000 0.000000
0.460000 0.020000 0.000000
0.470000 0.020000 0.000000
0.480000 0.020000 0.000000
0.490000 0.020000 0.000000
0.500000 0.020000 0.000000
0.510000 0.020000 0.000000
0.520000 0.020000 0.000000
0.530000 0.020000 0.000000
0.540000 0.020000 0.000000
0.550000 0.020000 0.000000
0.560000 0.020000 0.000000
0.570000 0.020000 0.000000
0.580000 0.020000 0.000000
0.590000 0.020000 0.000000
0.600000 0.020000 0.000000
0.610000 0.020000 0.000000
0.620000 0.020000 0.000000
0.630000 0.020000 0.000000
0.640000 0.020000 0.000000
0.650000 0.020000 0.000000
0.660000 0.020000 0.000000
0.670000 0.020000 0.000000
0.680000 0.020000 0.000000
0.690000 0.020000 0.000000
0.700000 0.020000 0.000000
0.710000 0.020000 0.000000
0.720000 0.020000 0.000000
0.730000 0.020000 0.000000
0.740000 0.020000 0.000000
0.750000 0.020000 0.000000
0.760000 0.020000 0.000000
0.770000 0.020000 0.000000
0.780000 0.020000 0.000000
0.790000 0.020000 0.000000
0.800000 0.020000 0.000000
0.810000 0.020000 0.000000
0.820000 0.020000 0.000000
0.830000 0.020000 0.000000
0.840000 0.020000 0.000000
0.850000 0.020000 0.000000
0.860000 0.020000 0.000000
0.870000 0.020000 0.000000
0.880000 0.020000 0.000000
0.890000 0.020000 0.000000
0.900000 0.020000 0.000000
0.910000 0.020000 0.000000
0.920000 0.020000 0.000000
0.930000 0.020000 0.000000
0.940000 0.020000 0.000000
0.950000 0.020000 0.000000
0.960000 0.020000 0.000000
0.970000 0.020000 0.000000
0.980000 0.020000 0.000000
0.990000 0.020000 0.000000
1.000000 0.020000 0.000000
0.000000 0.030000 0.000000
0.010000 0.030000 0.000000
0.020000 0.030000 0.000000
0.030000 0.030000 0.000000
0.040000 0.030000 0.000000
0.050000 0.030000 0.000000
0.060000 0.030000 0.000000
0.070000 0.030000 0.000000
0.080000 0.030000 0.000000
0.090000 0.030000 0.000000
0.100000 0.030000 0.000000
0.110000 0.030000 0.000000
0.120000 0.030000 0.000000
0.130000 0.030000 0.000000
0.140000 0.030000 0.000000
0.150000 0.030000 0.000000
0.160000 0.030000 0.000000
0.170000 0.030000 0.000000
0.180000 0.030000 0.000000
0.190000 0.030000 0.000000
0.200000 0.030000 0.000000
0.210000 0.030000 0.000000
0.220000 0.030000 0.000000
0.230000 0.030000 0.000000
0.240000 0.030000 0.000000
0.250000 0.030000 0.000000
0.260000 0.030000 0.000000
0.270000 0.030000 0.000000
0.280000 0.030000 0.000000
0.290000 0.030000 0.000000
0.300000 0.030000 0.000000
0.310000 0.030000 0.000000
0.320000 0.030000 0.000000
0.330000 0.030000 0.000000
0.340000 0.030000 0.000000
0.350000 0.030000 0.000000
0.360000 0.030000 0.000000
0.370000 0.030000 0.000000
0.380000 0.030000 0.000000
0.390000 0.030000 0.000000
0.400000 0.030000 0.000000
0.410000 0.030000 0.000000
0.420000 0.030000 0.000000
0.430000 0.030000 0.000000
0.440000 0.030000 0.000000
0.450000 0.030000 0.000000
0.460000 0.030000 0.000000
0.470000 0.030000 0.000000
0.480000 0.030000 0.000000
0.490000 0.030000 0.000000
0.500000 0.030000 0.000000
0.510000 0.030000 0.000000
0.520000 0.030000 0.000000
0.530000 0.030000 0.000000
0.540000 0.030000 0.000000
0.550000 0.030000 0.000000
0.560000 0.030000 0.000000
0.570000 0.030000 0.000000
0.580000 0.030000 0.000000
[...]
<CellData Scalars=" varID varIU varIV">
<DataArray type="Float32" Name="varID" format="ascii">
0.021577 0.023295 0.027827 0.036783 0.052410 0.078021 0.119146 0.186356 0.301828 0.525855 1.021679 1.876531 2.134722 1.380714 1.025233 1.000598 1.000000 1.000000 1.000000 1.000000 1.000000 1.000000 1.000000 1.000000 1.000000 1.000000 1.000000 1.000000 1.000000 1.000000 1.000000 1.000000 1.000000 1.000000 1.000000 1.000000 1.000000 1.000000 1.000000 1.000000 1.000000 1.000000 1.000000 1.000000 1.000000 1.000000 1.000000 1.000000 1.000000 1.000000 1.000000 1.000000 1.000000 1.000000 1.000000 1.000000 1.000000 1.000000 1.000000 1.000000 1.000000 1.000000 1.000000 1.000000 1.000000 1.000000 1.000000 1.000000 1.000000 1.000000 1.000000 1.000000 1.000000 1.000000 1.000000 1.000000 1.000000 1.000000 1.000000 1.000000 1.000000 1.000000 1.000000 1.000000 1.000000 1.000000 1.000000 1.000000 1.000000 1.000000 1.000000 1.000000 1.000000 1.000000 1.000000 1.000000 1.000000 1.000000 1.000000 1.000000 
0.023393 0.025786 0.031744 0.043135 0.062515 0.093566 0.142196 0.219600 0.349443 0.600997 1.151175 2.005092 2.142527 1.300806 1.017760 1.000334 1.000000 1.000000 1.000000 1.000000 1.000000 1.000000 1.000000 1.000000 1.000000 1.000000 1.000000 1.000000 1.000000 1.000000 1.000000 1.000000 1.000000 1.000000 1.000000 1.000000 1.000000 1.000000 1.000000 1.000000 1.000000 1.000000 1.000000 1.000000 1.000000 1.000000 1.000000 1.000000 1.000000 1.000000 1.000000 1.000000 1.000000 1.000000 1.000000 1.000000 1.000000 1.000000 1.000000 1.000000 1.000000 1.000000 1.000000 1.000000 1.000000 1.000000 1.000000 1.000000 1.000000 1.000000 1.000000 1.000000 1.000000 1.000000 1.000000 1.000000 1.000000 1.000000 1.000000 1.000000 1.000000 1.000000 1.000000 1.000000 1.000000 1.000000 1.000000 1.000000 1.000000 1.000000 1.000000 1.000000 1.000000 1.000000 1.000000 1.000000 1.000000 1.000000 1.000000 1.000000 
0.028339 0.032173 0.041026 0.057272 0.084110 0.125982 0.189621 0.288220 0.450789 0.770063 1.458875 2.227579 2.018042 1.150362 1.007287 1.000072 1.000000 1.000000 1.000000 1.000000 1.000000 1.000000 1.000000 1.000000 1.000000 1.000000 1.000000 1.000000 1.000000 1.000000 1.000000 1.000000 1.000000 1.000000 1.000000 1.000000 1.000000 1.000000 1.000000 1.000000 1.000000 1.000000 1.000000 1.000000 1.000000 1.000000 1.000000 1.000000 1.000000 1.000000 1.000000 1.000000 1.000000 1.000000 1.000000 1.000000 1.000000 1.000000 1.000000 1.000000 1.000000 1.000000 1.000000 1.000000 1.000000 1.000000 1.000000 1.000000 1.000000 1.000000 1.000000 1.000000 1.000000 1.000000 1.000000 1.000000 1.000000 1.000000 1.000000 1.000000 1.000000 1.000000 1.000000 1.000000 1.000000 1.000000 1.000000 1.000000 1.000000 1.000000 1.000000 1.000000 1.000000 1.000000 1.000000 1.000000 1.000000 1.000000 1.000000 1.000000 
0.038400 0.044795 0.058650 0.083036 0.121968 0.180798 0.267554 0.399877 0.622896 1.087022 1.970460 2.386205 1.658233 1.051850 1.001409 1.000002 1.000000 1.000000 1.000000 1.000000 1.000000 1.000000 1.000000 1.000000 1.000000 1.000000 1.000000 1.000000 1.000000 1.000000 1.000000 1.000000 1.000000 1.000000 1.000000 1.000000 1.000000 1.000000 1.000000 1.000000 1.000000 1.000000 1.000000 1.000000 1.000000 1.000000 1.000000 1.000000 1.000000 1.000000 1.000000 1.000000 1.000000 1.000000 1.000000 1.000000 1.000000 1.000000 1.000000 1.000000 1.000000 1.000000 1.000000 1.000000 1.000000 1.000000 1.000000 1.000000 1.000000 1.000000 1.000000 1.000000 1.000000 1.000000 1.000000 1.000000 1.000000 1.000000 1.000000 1.000000 1.000000 1.000000 1.000000 1.000000 1.000000 1.000000 1.000000 1.000000 1.000000 1.000000 1.000000 1.000000 1.000000 1.000000 1.000000 1.000000 1.000000 1.000000 1.000000 1.000000 
0.056264 0.066596 0.088172 0.125022 0.181760 0.264396 0.383843 0.567581 0.907693 1.658901 2.436012 2.250408 1.205609 1.009643 1.000093 1.000000 1.000000 1.000000 1.000000 1.000000 1.000000 1.000000 1.000000 1.000000 1.000000 1.000000 1.000000 1.000000 1.000000 1.000000 1.000000 1.000000 1.000000 1.000000 1.000000 1.000000 1.000000 1.000000 1.000000 1.000000 1.000000 1.000000 1.000000 1.000000 1.000000 1.000000 1.000000 1.000000 1.000000 1.000000 1.000000 1.000000 1.000000 1.000000 1.000000 1.000000 1.000000 1.000000 1.000000 1.000000 1.000000 1.000000 1.000000 1.000000 1.000000 1.000000 1.000000 1.000000 1.000000 1.000000 1.000000 1.000000 1.000000 1.000000 1.000000 1.000000 1.000000 1.000000 1.000000 1.000000 1.000000 1.000000 1.000000 1.000000 1.000000 1.000000 1.000000 1.000000 1.000000 1.000000 1.000000 1.000000 1.000000 1.000000 1.000000 1.000000 1.000000 1.000000 1.000000 1.000000 
0.087397 0.103145 0.135025 0.188745 0.270310 0.386306 0.555453 0.838831 1.443150 2.351711 2.553813 1.548243 1.036006 1.000773 1.000000 1.000000 1.000000 1.000000 1.000000 1.000000 1.000000 1.000000 1.000000 1.000000 1.000000 1.000000 1.000000 1.000000 1.000000 1.000000 1.000000 1.000000 1.000000 1.000000 1.000000 1.000000 1.000000 1.000000 1.000000 1.000000 1.000000 1.000000 1.000000 1.000000 1.000000 1.000000 1.000000 1.000000 1.000000 1.000000 1.000000 1.000000 1.000000 1.000000 1.000000 1.000000 1.000000 1.000000 1.000000 1.000000 1.000000 1.000000 1.000000 1.000000 1.000000 1.000000 1.000000 1.000000 1.000000 1.000000 1.000000 1.000000 1.000000 1.000000 1.000000 1.000000 1.000000 1.000000 1.000000 1.000000 1.000000 1.000000 1.000000 1.000000 1.000000 1.000000 1.000000 1.000000 1.000000 1.000000 1.000000 1.000000 1.000000 1.000000 1.000000 1.000000 1.000000 1.000000 1.000000 1.000000 
0.149171 0.170734 0.214568 0.287588 0.398883 0.564575 0.831613 1.362169 2.263411 2.654353 1.922384 1.087297 1.003043 1.000008 1.000000 1.000000 1.000000 1.000000 1.000000 1.000000 1.000000 1.000000 1.000000 1.000000 1.000000 1.000000 1.000000 1.000000 1.000000 1.000000 1.000000 1.000000 1.000000 1.000000 1.000000 1.000000 1.000000 1.000000 1.000000 1.000000 1.000000 1.000000 1.000000 1.000000 1.000000 1.000000 1.000000 1.000000 1.000000 1.000000 1.000000 1.000000 1.000000 1.000000 1.000000 1.000000 1.000000 1.000000 1.000000 1.000000 1.000000 1.000000 1.000000 1.000000 1.000000 1.000000 1.000000 1.000000 1.000000 1.000000 1.000000 1.000000 1.000000 1.000000 1.000000 1.000000 1.000000 1.000000 1.000000 1.000000 1.000000 1.000000 1.000000 1.000000 1.000000 1.000000 1.000000 1.000000 1.000000 1.000000 1.000000 1.000000 1.000000 1.000000 1.000000 1.000000 1.000000 1.000000 1.000000 1.000000 
0.333324 0.358457 0.404393 0.482636 0.623717 0.872769 1.389721 2.242327 2.681470 2.175746 1.152303 1.007401 1.000059 1.000000 1.000000 1.000000 1.000000 1.000000 1.000000 1.000000 1.000000 1.000000 1.000000 1.000000 1.000000 1.000000 1.000000 1.000000 1.000000 1.000000 1.000000 1.000000 1.000000 1.000000 1.000000 1.000000 1.000000 1.000000 1.000000 1.000000 1.000000 1.000000 1.000000 1.000000 1.000000 1.000000 1.000000 1.000000 1.000000 1.000000 1.000000 1.000000 1.000000 1.000000 1.000000 1.000000 1.000000 1.000000 1.000000 1.000000 1.000000 1.000000 1.000000 1.000000 1.000000 1.000000 1.000000 1.000000 1.000000 1.000000 1.000000 1.000000 1.000000 1.000000 1.000000 1.000000 1.000000 1.000000 1.000000 1.000000 1.000000 1.000000 1.000000 1.000000 1.000000 1.000000 1.000000 1.000000 1.000000 1.000000 1.000000 1.000000 1.000000 1.000000 1.000000 1.000000 1.000000 1.000000 1.000000 1.000000 
0.919900 0.951369 1.039442 1.153963 1.286926 1.594750 2.239239 2.680989 2.240893 1.196288 1.011989 1.000181 1.000000 1.000000 1.000000 1.000000 1.000000 1.000000 1.000000 1.000000 1.000000 1.000000 1.000000 1.000000 1.000000 1.000000 1.000000 1.000000 1.000000 1.000000 1.000000 1.000000 1.000000 1.000000 1.000000 1.000000 1.000000 1.000000 1.000000 1.000000 1.000000 1.000000 1.000000 1.000000 1.000000 1.000000 1.000000 1.000000 1.000000 1.000000 1.000000 1.000000 1.000000 1.000000 1.000000 1.000000 1.000000 1.000000 1.000000 1.000000 1.000000 1.000000 1.000000 1.000000 1.000000 1.000000 1.000000 1.000000 1.000000 1.000000 1.000000 1.000000 1.000000 1.000000 1.000000 1.000000 1.000000 1.000000 1.000000 1.000000 1.000000 1.000000 1.000000 1.000000 1.000000 1.000000 1.000000 1.000000 1.000000 1.000000 1.000000 1.000000 1.000000 1.000000 1.000000 1.000000 1.000000 1.000000 1.000000 1.000000 
2.402904 2.565771 2.947389 3.570689 4.230880 4.450604 3.822468 2.229763 1.188897 1.013788 1.000289 1.000000 1.000000 1.000000 1.000000 1.000000 1.000000 1.000000 1.000000 1.000000 1.000000 1.000000 1.000000 1.000000 1.000000 1.000000 1.000000 1.000000 1.000000 1.000000 1.000000 1.000000 1.000000 1.000000 1.000000 1.000000 1.000000 1.000000 1.000000 1.000000 1.000000 1.000000 1.000000 1.000000 1.000000 1.000000 1.000000 1.000000 1.000000 1.000000 1.000000 1.000000 1.000000 1.000000 1.000000 1.000000 1.000000 1.000000 1.000000 1.000000 1.000000 1.000000 1.000000 1.000000 1.000000 1.000000 1.000000 1.000000 1.000000 1.000000 1.000000 1.000000 1.000000 1.000000 1.000000 1.000000 1.000000 1.000000 1.000000 1.000000 1.000000 1.000000 1.000000 1.000000 1.000000 1.000000 1.000000 1.000000 1.000000 1.000000 1.000000 1.000000 1.000000 1.000000 1.000000 1.000000 1.000000 1.000000 1.000000 1.000000 
</DataArray>
<DataArray type="Float32" Name="varIU" format="ascii">
0.004830 0.016152 0.033057 0.061676 0.114320 0.212381 0.395572 0.737945 1.398162 2.820014 6.407423 11.636487 10.154411 1.772634 0.028937 0.000034 0.000000 0.000000 0.000000 0.000000 0.000000 0.000000 0.000000 0.000000 0.000000 0.000000 0.000000 0.000000 0.000000 0.000000 0.000000 0.000000 0.000000 0.000000 0.000000 0.000000 0.000000 0.000000 0.000000 0.000000 0.000000 0.000000 0.000000 0.000000 0.000000 0.000000 0.000000 0.000000 0.000000 0.000000 0.000000 0.000000 0.000000 0.000000 0.000000 0.000000 0.000000 0.000000 0.000000 0.000000 0.000000 0.000000 0.000000 0.000000 0.000000 0.000000 0.000000 0.000000 0.000000 0.000000 0.000000 0.000000 0.000000 0.000000 0.000000 0.000000 0.000000 0.000000 0.000000 0.000000 0.000000 0.000000 0.000000 0.000000 0.000000 0.000000 0.000000 0.000000 0.000000 0.000000 0.000000 0.000000 0.000000 0.000000 0.000000 0.000000 0.000000 0.000000 0.000000 0.000000 
0.005232 0.017639 0.037106 0.071359 0.134916 0.252314 0.467459 0.859874 1.603551 3.224417 7.143512 12.093908 9.383626 1.207222 0.015320 0.000012 0.000000 0.000000 0.000000 0.000000 0.000000 0.000000 0.000000 0.000000 0.000000 0.000000 0.000000 0.000000 0.000000 0.000000 0.000000 0.000000 0.000000 0.000000 0.000000 0.000000 0.000000 0.000000 0.000000 0.000000 0.000000 0.000000 0.000000 0.000000 0.000000 0.000000 0.000000 0.000000 0.000000 0.000000 0.000000 0.000000 0.000000 0.000000 0.000000 0.000000 0.000000 0.000000 0.000000 0.000000 0.000000 0.000000 0.000000 0.000000 0.000000 0.000000 0.000000 0.000000 0.000000 0.000000 0.000000 0.000000 0.000000 0.000000 0.000000 0.000000 0.000000 0.000000 0.000000 0.000000 0.000000 0.000000 0.000000 0.000000 0.000000 0.000000 0.000000 0.000000 0.000000 0.000000 0.000000 0.000000 0.000000 0.000000 0.000000 0.000000 0.000000 0.000000 0.000000 0.000000 
0.007013 0.024126 0.051807 0.100833 0.190631 0.352004 0.636382 1.135137 2.061209 4.144635 8.817792 12.675558 7.140432 0.460650 0.003250 0.000001 0.000000 0.000000 0.000000 0.000000 0.000000 0.000000 0.000000 0.000000 0.000000 0.000000 0.000000 0.000000 0.000000 0.000000 0.000000 0.000000 0.000000 0.000000 0.000000 0.000000 0.000000 0.000000 0.000000 0.000000 0.000000 0.000000 0.000000 0.000000 0.000000 0.000000 0.000000 0.000000 0.000000 0.000000 0.000000 0.000000 0.000000 0.000000 0.000000 0.000000 0.000000 0.000000 0.000000 0.000000 0.000000 0.000000 0.000000 0.000000 0.000000 0.000000 0.000000 0.000000 0.000000 0.000000 0.000000 0.000000 0.000000 0.000000 0.000000 0.000000 0.000000 0.000000 0.000000 0.000000 0.000000 0.000000 0.000000 0.000000 0.000000 0.000000 0.000000 0.000000 0.000000 0.000000 0.000000 0.000000 0.000000 0.000000 0.000000 0.000000 0.000000 0.000000 0.000000 0.000000 
0.009881 0.034652 0.076184 0.150022 0.282034 0.511499 0.900235 1.566033 2.828483 5.923880 11.400810 11.984467 3.396167 0.084019 0.000159 0.000000 0.000000 0.000000 0.000000 0.000000 0.000000 0.000000 0.000000 0.000000 0.000000 0.000000 0.000000 0.000000 0.000000 0.000000 0.000000 0.000000 0.000000 0.000000 0.000000 0.000000 0.000000 0.000000 0.000000 0.000000 0.000000 0.000000 0.000000 0.000000 0.000000 0.000000 0.000000 0.000000 0.000000 0.000000 0.000000 0.000000 0.000000 0.000000 0.000000 0.000000 0.000000 0.000000 0.000000 0.000000 0.000000 0.000000 0.000000 0.000000 0.000000 0.000000 0.000000 0.000000 0.000000 0.000000 0.000000 0.000000 0.000000 0.000000 0.000000 0.000000 0.000000 0.000000 0.000000 0.000000 0.000000 0.000000 0.000000 0.000000 0.000000 0.000000 0.000000 0.000000 0.000000 0.000000 0.000000 0.000000 0.000000 0.000000 0.000000 0.000000 0.000000 0.000000 0.000000 0.000000 
0.014911 0.051014 0.110017 0.218161 0.409851 0.733491 1.270595 2.210406 4.218707 9.099965 13.079072 8.177078 0.628565 0.004651 0.000001 0.000000 0.000000 0.000000 0.000000 0.000000 0.000000 0.000000 0.000000 0.000000 0.000000 0.000000 0.000000 0.000000 0.000000 0.000000 0.000000 0.000000 0.000000 0.000000 0.000000 0.000000 0.000000 0.000000 0.000000 0.000000 0.000000 0.000000 0.000000 0.000000 0.000000 0.000000 0.000000 0.000000 0.000000 0.000000 0.000000 0.000000 0.000000 0.000000 0.000000 0.000000 0.000000 0.000000 0.000000 0.000000 0.000000 0.000000 0.000000 0.000000 0.000000 0.000000 0.000000 0.000000 0.000000 0.000000 0.000000 0.000000 0.000000 0.000000 0.000000 0.000000 0.000000 0.000000 0.000000 0.000000 0.000000 0.000000 0.000000 0.000000 0.000000 0.000000 0.000000 0.000000 0.000000 0.000000 0.000000 0.000000 0.000000 0.000000 0.000000 0.000000 0.000000 0.000000 0.000000 0.000000 
0.022656 0.080805 0.158703 0.304656 0.572469 1.035246 1.822224 3.348401 7.194754 12.379466 11.280277 2.323508 0.040587 0.000047 0.000000 0.000000 0.000000 0.000000 0.000000 0.000000 0.000000 0.000000 0.000000 0.000000 0.000000 0.000000 0.000000 0.000000 0.000000 0.000000 0.000000 0.000000 0.000000 0.000000 0.000000 0.000000 0.000000 0.000000 0.000000 0.000000 0.000000 0.000000 0.000000 0.000000 0.000000 0.000000 0.000000 0.000000 0.000000 0.000000 0.000000 0.000000 0.000000 0.000000 0.000000 0.000000 0.000000 0.000000 0.000000 0.000000 0.000000 0.000000 0.000000 0.000000 0.000000 0.000000 0.000000 0.000000 0.000000 0.000000 0.000000 0.000000 0.000000 0.000000 0.000000 0.000000 0.000000 0.000000 0.000000 0.000000 0.000000 0.000000 0.000000 0.000000 0.000000 0.000000 0.000000 0.000000 0.000000 0.000000 0.000000 0.000000 0.000000 0.000000 0.000000 0.000000 0.000000 0.000000 0.000000 0.000000 
0.046414 0.158475 0.267829 0.461128 0.830094 1.512066 2.844743 6.070516 11.249177 12.154671 4.532393 0.158800 0.000505 0.000000 0.000000 0.000000 0.000000 0.000000 0.000000 0.000000 0.000000 0.000000 0.000000 0.000000 0.000000 0.000000 0.000000 0.000000 0.000000 0.000000 0.000000 0.000000 0.000000 0.000000 0.000000 0.000000 0.000000 0.000000 0.000000 0.000000 0.000000 0.000000 0.000000 0.000000 0.000000 0.000000 0.000000 0.000000 0.000000 0.000000 0.000000 0.000000 0.000000 0.000000 0.000000 0.000000 0.000000 0.000000 0.000000 0.000000 0.000000 0.000000 0.000000 0.000000 0.000000 0.000000 0.000000 0.000000 0.000000 0.000000 0.000000 0.000000 0.000000 0.000000 0.000000 0.000000 0.000000 0.000000 0.000000 0.000000 0.000000 0.000000 0.000000 0.000000 0.000000 0.000000 0.000000 0.000000 0.000000 0.000000 0.000000 0.000000 0.000000 0.000000 0.000000 0.000000 0.000000 0.000000 0.000000 0.000000 
0.139991 0.444687 0.686744 0.906872 1.430564 2.572986 5.512284 10.229979 11.771190 5.971326 0.333778 0.002297 0.000000 0.000000 0.000000 0.000000 0.000000 0.000000 0.000000 0.000000 0.000000 0.000000 0.000000 0.000000 0.000000 0.000000 0.000000 0.000000 0.000000 0.000000 0.000000 0.000000 0.000000 0.000000 0.000000 0.000000 0.000000 0.000000 0.000000 0.000000 0.000000 0.000000 0.000000 0.000000 0.000000 0.000000 0.000000 0.000000 0.000000 0.000000 0.000000 0.000000 0.000000 0.000000 0.000000 0.000000 0.000000 0.000000 0.000000 0.000000 0.000000 0.000000 0.000000 0.000000 0.000000 0.000000 0.000000 0.000000 0.000000 0.000000 0.000000 0.000000 0.000000 0.000000 0.000000 0.000000 0.000000 0.000000 0.000000 0.000000 0.000000 0.000000 0.000000 0.000000 0.000000 0.000000 0.000000 0.000000 0.000000 0.000000 0.000000 0.000000 0.000000 0.000000 0.000000 0.000000 0.000000 0.000000 0.000000 0.000000 
0.419654 1.300820 2.271308 3.263941 4.110075 5.829624 9.148187 10.712490 5.948872 0.437039 0.004701 0.000003 0.000000 0.000000 0.000000 0.000000 0.000000 0.000000 0.000000 0.000000 0.000000 0.000000 0.000000 0.000000 0.000000 0.000000 0.000000 0.000000 0.000000 0.000000 0.000000 0.000000 0.000000 0.000000 0.000000 0.000000 0.000000 0.000000 0.000000 0.000000 0.000000 0.000000 0.000000 0.000000 0.000000 0.000000 0.000000 0.000000 0.000000 0.000000 0.000000 0.000000 0.000000 0.000000 0.000000 0.000000 0.000000 0.000000 0.000000 0.000000 0.000000 0.000000 0.000000 0.000000 0.000000 0.000000 0.000000 0.000000 0.000000 0.000000 0.000000 0.000000 0.000000 0.000000 0.000000 0.000000 0.000000 0.000000 0.000000 0.000000 0.000000 0.000000 0.000000 0.000000 0.000000 0.000000 0.000000 0.000000 0.000000 0.000000 0.000000 0.000000 0.000000 0.000000 0.000000 0.000000 0.000000 0.000000 0.000000 0.000000 
1.114000 3.504885 6.702413 11.661440 16.940829 19.171915 14.587915 4.723585 0.342526 0.005092 0.000006 0.000000 0.000000 0.000000 0.000000 0.000000 0.000000 0.000000 0.000000 0.000000 0.000000 0.000000 0.000000 0.000000 0.000000 0.000000 0.000000 0.000000 0.000000 0.000000 0.000000 0.000000 0.000000 0.000000 0.000000 0.000000 0.000000 0.000000 0.000000 0.000000 0.000000 0.000000 0.000000 0.000000 0.000000 0.000000 0.000000 0.000000 0.000000 0.000000 0.000000 0.000000 0.000000 0.000000 0.000000 0.000000 0.000000 0.000000 0.000000 0.000000 0.000000 0.000000 0.000000 0.000000 0.000000 0.000000 0.000000 0.000000 0.000000 0.000000 0.000000 0.000000 0.000000 0.000000 0.000000 0.000000 0.000000 0.000000 0.000000 0.000000 0.000000 0.000000 0.000000 0.000000 0.000000 0.000000 0.000000 0.000000 0.000000 0.000000 0.000000 0.000000 0.000000 0.000000 0.000000 0.000000 0.000000 0.000000 0.000000 0.000000 
</DataArray>
<DataArray type="Float32" Name="varIV" format="ascii">
0.005867 0.005956 0.006962 0.009171 0.012698 0.017675 0.025249 0.039317 0.069185 0.156566 0.381192 0.668288 0.461661 0.041119 0.000172 0.000000 0.000000 0.000000 0.000000 0.000000 0.000000 0.000000 0.000000 0.000000 0.000000 0.000000 0.000000 0.000000 0.000000 0.000000 0.000000 0.000000 0.000000 0.000000 0.000000 0.000000 0.000000 0.000000 0.000000 0.000000 0.000000 0.000000 0.000000 0.000000 0.000000 0.000000 0.000000 0.000000 0.000000 0.000000 0.000000 0.000000 0.000000 0.000000 0.000000 0.000000 0.000000 0.000000 0.000000 0.000000 0.000000 0.000000 0.000000 0.000000 0.000000 0.000000 0.000000 0.000000 0.000000 0.000000 0.000000 0.000000 0.000000 0.000000 0.000000 0.000000 0.000000 0.000000 0.000000 0.000000 0.000000 0.000000 0.000000 0.000000 0.000000 0.000000 0.000000 0.000000 0.000000 0.000000 0.000000 0.000000 0.000000 0.000000 0.000000 0.000000 0.000000 0.000000 0.000000 0.000000 