<?xml version="1.0"?>
<VTKFile type="StructuredGrid">
<StructuredGrid WholeExtent=" 0 100 0 10 0 0">
<Piece Extent=" 0 100 0 10 0 0">
<Points>
<DataArray type="Float32" format="ascii" NumberOfComponents="3">
0.000000 0.000000 0.000000
0.010000 0.000000 0.000000
0.020000 0.000000 0.000000
0.030000 0.000000 0.000000
0.040000 0.000000 0.000000
0.050000 0.000000 0.000000
0.060000 0.000000 0.000000
0.070000 0.000000 0.000000
0.080000 0.000000 0.000000
0.090000 0.000000 0.000000
0.100000 0.000000 0.000000
0.110000 0.000000 0.000000
0.120000 0.000000 0.000000
0.130000 0.000000 0.000000
0.140000 0.000000 0.000000
0.150000 0.000000 0.000000
0.160000 0.000000 0.000000
0.170000 0.000000 0.000000
0.180000 0.000000 0.000000
0.190000 0.000000 0.000000
0.200000 0.000000 0.000000
0.210000 0.000000 0.000000
0.220000 0.000000 0.000000
0.230000 0.000000 0.000000
0.240000 0.000000 0.000000
0.250000 0.000000 0.000000
0.260000 0.000000 0.000000
0.270000 0.000000 0.000000
0.280000 0.000000 0.000000
0.290000 0.000000 0.000000
0.300000 0.000000 0.000000
0.310000 0.000000 0.000000
0.320000 0.000000 0.000000
0.330000 0.000000 0.000000
0.340000 0.000000 0.000000
0.350000 0.000000 0.000000
0.360000 0.000000 0.000000
0.370000 0.000000 0.000000
0.380000 0.000000 0.000000
0.390000 0.000000 0.000000
0.400000 0.000000 0.000000
0.410000 0.000000 0.000000
0.420000 0.000000 0.000000
0.430000 0.000000 0.000000
0.440000 0.000000 0.000000
0.450000 0.000000 0.000000
0.460000 0.000000 0.000000
0.470000 0.000000 0.000000
0.480000 0.000000 0.000000
0.490000 0.000000 0.000000
0.500000 0.000000 0.000000
0.510000 0.000000 0.000000
0.520000 0.000000 0.000000
0.530000 0.000000 0.000000
0.540000 0.000000 0.000000
0.550000 0.000000 0.000000
0.560000 0.000000 0.000000
0.570000 0.000000 0.000000
0.580000 0.000000 0.000000
0.590000 0.000000 0.000000
0.600000 0.000000 0.000000
0.610000 0.000000 0.000000
0.620000 0.000000 0.000000
0.630000 0.000000 0.000000
0.640000 0.000000 0.000000
0.650000 0.000000 0.000000
0.660000 0.000000 0.000000
0.670000 0.000000 0.000000
0.680000 0.000000 0.000000
0.690000 0.000000 0.000000
0.700000 0.000000 0.000000
0.710000 0.000000 0.000000
0.720000 0.000000 0.000000
0.730000 0.000000 0.000000
0.740000 0.000000 0.000000
0.750000 0.000000 0.000000
0.760000 0.000000 0.000000
0.770000 0.000000 0.000000
0.780000 0.000000 0.000000
0.790000 0.000000 0.000000
0.800000 0.000000 0.000000
0.810000 0.000000 0.000000
0.820000 0.000000 0.000000
0.830000 0.000000 0.000000
0.840000 0.000000 0.000000
0.850000 0.000000 0.000000
0.860000 0.000000 0.000000
0.870000 0.000000 0.000000
0.880000 0.000000 0.000000
0.890000 0.000000 0.000000
0.900000 0.000000 0.000000
0.910000 0.000000 0.000000
0.920000 0.000000 0.000000
0.930000 0.000000 0.000000
0.940000 0.000000 0.000000
0.950000 0.000000 0.000000
0.960000 0.000000 0.000000
0.970000 0.000000 0.000000
0.980000 0.000000 0.000000
0.990000 0.000000 0.000000
1.000000 0.000000 0.000000
0.000000 0.010000 0.000000
0.010000 0.010000 0.000000
0.020000 0.010000 0.000000
0.030000 0.010000 0.000000
0.040000 0.010000 0.000000
0.050000 0.010000 0.000000
0.060000 0.010000 0.000000
0.070000 0.010000 0.000000
0.080000 0.010000 0.000000
0.090000 0.010000 0.000000
0.100000 0.010000 0.000000
0.110000 0.010000 0.000000
0.120000 0.010000 0.000000
0.130000 0.010000 0.000000
0.140000 0.010000 0.000000
0.150000 0.010000 0.000000
0.160000 0.010000 0.000000
0.170000 0.010000 0.000000
0.180000 0.010000 0.000000
0.190000 0.010000 0.000000
0.200000 0.010000 0.000000
0.210000 0.010000 0.000000
0.220000 0.010000 0.000000
0.230000 0.010000 0.000000
0.240000 0.010000 0.000000
0.250000 0.010000 0.000000
0.260000 0.010000 0.000000
0.270000 0.010000 0.000000
0.280000 0.010000 0.000000
0.290000 0.010000 0.000000
0.300000 0.010000 0.000000
0.310000 0.010000 0.000000
0.320000 0.010000 0.000000
0.330000 0.010000 0.000000
0.340000 0.010000 0.000000
0.350000 0.010000 0.000000
0.360000 0.010000 0.000000
0.370000 0.010000 0.000000
0.380000 0.010000 0.000000
0.390000 0.010000 0.000000
0.400000 0.010000 0.000000
0.410000 0.010000 0.000000
0.420000 0.010000 0.000000
0.430000 0.010000 0.000000
0.440000 0.010000 0.000000
0.450000 0.010000 0.000000
0.460000 0.010000 0.000000
0.470000 0.010000 0.000000
0.480000 0.010000 0.000000
0.490000 0.010000 0.000000
0.500000 0.010000 0.000000
0.510000 0.010000 0.000000
0.520000 0.010000 0.000000
0.530000 0.010000 0.000000
0.540000 0.010000 0.000000
0.550000 0.010000 0.000000
0.560000 0.010000 0.000000
0.570000 0.010000 0.000000
0.580000 0.010000 0.000000
0.590000 0.010000 0.000000
0.600000 0.010000 0.000000
0.610000 0.010000 0.000000
0.620000 0.010000 0.000000
0.630000 0.010000 0.000000
0.640000 0.010000 0.000000
0.650000 0.010000 0.000000
0.660000 0.010000 0.000000
0.670000 0.010000 0.000000
0.680000 0.010000 0.000000
0.690000 0.010000 0.000000
0.700000 0.010000 0.000000
0.710000 0.010000 0.000000
0.720000 0.010000 0.000000
0.730000 0.010000 0.000000
0.740000 0.010000 0.000000
0.750000 0.010000 0.000000
0.760000 0.010000 0.000000
0.770000 0.010000 0.000000
0.780000 0.010000 0.000000
0.790000 0.010000 0.000000
0.800000 0.010000 0.000000
0.810000 0.010000 0.000000
0.820000 0.010000 0.000000
0.830000 0.010000 0.000000
0.840000 0.010000 0.000000
0.850000 0.010000 0.000000
0.860000 0.010000 0.000000
0.870000 0.010000 0.000000
0.880000 0.010000 0.000000
0.890000 0.010000 0.000000
0.900000 0.010000 0.000000
0.910000 0.010000 0.000000
0.920000 0.010000 0.000000
0.930000 0.010000 0.000000
0.940000 0.010000 0.000000
0.950000 0.010000 0.000000
0.960000 0.010000 0.000000
0.970000 0.010000 0.000000
0.980000 0.010000 0.000000
0.990000 0.010000 0.000000
1.000000 0.010000 0.000000
0.000000 0.020000 0.000000
0.010000 0.020000 0.000000
0.020000 0.020000 0.000000
0.030000 0.020000 0.000000
0.040000 0.020000 0.000000
0.050000 0.020000 0.000000
0.060000 0.020000 0.000000
0.070000 0.020000 0.000000
0.080000 0.020000 0.000000
0.090000 0.020000 0.000000
0.100000 0.020000 0.000000
0.110000 0.020000 0.000000
0.120000 0.020000 0.000000
0.130000 0.020000 0.000000
0.140000 0.020000 0.000000
0.150000 0.020000 0.000000
0.160000 0.020000 0.000000
0.170000 0.020000 0.000000
0.180000 0.020000 0.000000
0.190000 0.020000 0.000000
0.200000 0.020000 0.000000
0.210000 0.020000 0.000000
0.220000 0.020000 0.000000
0.230000 0.020000 0.000000
0.240000 0.020000 0.000000
0.250000 0.020000 0.000000
0.260000 0.020000 0.000000
0.270000 0.020000 0.000000
0.280000 0.020000 0.000000
0.290000 0.020000 0.000000
0.300000 0.020000 0.000000
0.310000 0.020000 0.000000
0.320000 0.020000 0.000000
0.330000 0.020000 0.000000
0.340000 0.020000 0.000000
0.350000 0.020000 0.000000
0.360000 0.020000 0.000000
0.370000 0.020000 0.000000
0.380000 0.020000 0.000000
0.390000 0.020000 0.000000
0.400000 0.020000 0.000000
0.410000 0.020000 0.000000
0.420000 0.020000 0.000000
0.430000 0.020000 0.000000
0.440000 0.020000 0.000000
0.450000 0.020000 0.000000
0.460000 0.020000 0.000000
0.470000 0.020000 0.000000
0.480000 0.020000 0.000000
0.490000 0.020000 0.000000
0.500000 0.020000 0.000000
0.510000 0.020000 0.000000
0.520000 0.020000 0.000000
0.530000 0.020000 0.000000
0.540000 0.020000 0.000000
0.550000 0.020000 0.000000
0.560000 0.020000 0.000000
0.570000 0.020000 0.000000
0.580000 0.020000 0.000000
0.590000 0.020000 0.000000
0.600000 0.020000 0.000000
0.610000 0.020000 0.000000
0.620000 0.020000 0.000000
0.630000 0.020000 0.000000
0.640000 0.020000 0.000000
0.650000 0.020000 0.000000
0.660000 0.020000 0.000000
0.670000 0.020000 0.000000
0.680000 0.020000 0.000000
0.690000 0.020000 0.000000
0.700000 0.020000 0.000000
0.710000 0.020000 0.000000
0.720000 0.020000 0.000000
0.730000 0.020000 0.000000
0.740000 0.020000 0.000000
0.750000 0.020000 0.000000
0.760000 0.020000 0.000000
0.770000 0.020000 0.000000
0.780000 0.020000 0.000000
0.790000 0.020000 0.000000
0.800000 0.020000 0.000000
0.810000 0.020000 0.000000
0.820000 0.020000 0.000000
0.830000 0.020000 0.000000
0.840000 0.020000 0.000000
0.850000 0.020000 0.000000
0.860000 0.020000 0.000000
0.870000 0.020000 0.000000
0.880000 0.020000 0.000000
0.890000 0.020000 0.000000
0.900000 0.020000 0.000000
0.910000 0.020000 0.000000
0.920000 0.020000 0.000000
0.930000 0.020000 0.000000
0.940000 0.020000 0.000000
0.950000 0.020000 0.000000
0.960000 0.020000 0.000000
0.970000 0.020000 0.000000
0.980000 0.020000 0.000000
0.990000 0.020000 0.000000
1.000000 0.020000 0.000000
0.000000 0.030000 0.000000
0.010000 0.030000 0.000000
0.020000 0.030000 0.000000
0.030000 0.030000 0.000000
0.040000 0.030000 0.000000
0.050000 0.030000 0.000000
0.060000 0.030000 0.000000
0.070000 0.030000 0.000000
0.080000 0.030000 0.000000
0.090000 0.030000 0.000000
0.100000 0.030000 0.000000
0.110000 0.030000 0.000000
0.120000 0.030000 0.000000
0.130000 0.030000 0.000000
0.140000 0.030000 0.000000
0.150000 0.030000 0.000000
0.160000 0.030000 0.000000
0.170000 0.030000 0.000000
0.180000 0.030000 0.000000
0.190000 0.030000 0.000000
0.200000 0.030000 0.000000
0.210000 0.030000 0.000000
0.220000 0.030000 0.000000
0.230000 0.030000 0.000000
0.240000 0.030000 0.000000
0.250000 0.030000 0.000000
0.260000 0.030000 0.000000
0.270000 0.030000 0.000000
0.280000 0.030000 0.000000
0.290000 0.030000 0.000000
0.300000 0.030000 0.000000
0.310000 0.030000 0.000000
0.320000 0.030000 0.000000
0.330000 0.030000 0.000000
0.340000 0.030000 0.000000
0.350000 0.030000 0.000000
0.360000 0.030000 0.000000
0.370000 0.030000 0.000000
0.380000 0.030000 0.000000
0.390000 0.030000 0.000000
0.400000 0.030000 0.000000
0.410000 0.030000 0.000000
0.420000 0.030000 0.000000
0.430000 0.030000 0.000000
0.440000 0.030000 0.000000
0.450000 0.030000 0.000000
0.460000 0.030000 0.000000
0.470000 0.030000 0.000000
0.480000 0.030000 0.000000
0.490000 0.030000 0.000000
0.500000 0.030000 0.000000
0.510000 0.030000 0.000000
0.520000 0.030000 0.000000
0.530000 0.030000 0.000000
0.540000 0.030000 0.000000
0.550000 0.030000 0.000000
0.560000 0.030000 0.000000
0.570000 0.030000 0.000000
0.580000 0.030000 0.000000
[...]
<CellData Scalars=" varID varIU varIV">
<DataArray type="Float32" Name="varID" format="ascii">
0.075825 0.097186 0.191562 0.515027 1.335683 1.515241 1.050372 1.000572 1.000000 1.000000 1.000000 1.000000 1.000000 1.000000 1.000000 1.000000 1.000000 1.000000 1.000000 1.000000 1.000000 1.000000 1.000000 1.000000 1.000000 1.000000 1.000000 1.000000 1.000000 1.000000 1.000000 1.000000 1.000000 1.000000 1.000000 1.000000 1.000000 1.000000 1.000000 1.000000 1.000000 1.000000 1.000000 1.000000 1.000000 1.000000 1.000000 1.000000 1.000000 1.000000 1.000000 1.000000 1.000000 1.000000 1.000000 1.000000 1.000000 1.000000 1.000000 1.000000 1.000000 1.000000 1.000000 1.000000 1.000000 1.000000 1.000000 1.000000 1.000000 1.000000 1.000000 1.000000 1.000000 1.000000 1.000000 1.000000 1.000000 1.000000 1.000000 1.000000 1.000000 1.000000 1.000000 1.000000 1.000000 1.000000 1.000000 1.000000 1.000000 1.000000 1.000000 1.000000 1.000000 1.000000 1.000000 1.000000 1.000000 1.000000 1.000000 1.000000 
0.099776 0.134034 0.303072 0.929867 1.707178 1.318820 1.012595 1.000035 1.000000 1.000000 1.000000 1.000000 1.000000 1.000000 1.000000 1.000000 1.000000 1.000000 1.000000 1.000000 1.000000 1.000000 1.000000 1.000000 1.000000 1.000000 1.000000 1.000000 1.000000 1.000000 1.000000 1.000000 1.000000 1.000000 1.000000 1.000000 1.000000 1.000000 1.000000 1.000000 1.000000 1.000000 1.000000 1.000000 1.000000 1.000000 1.000000 1.000000 1.000000 1.000000 1.000000 1.000000 1.000000 1.000000 1.000000 1.000000 1.000000 1.000000 1.000000 1.000000 1.000000 1.000000 1.000000 1.000000 1.000000 1.000000 1.000000 1.000000 1.000000 1.000000 1.000000 1.000000 1.000000 1.000000 1.000000 1.000000 1.000000 1.000000 1.000000 1.000000 1.000000 1.000000 1.000000 1.000000 1.000000 1.000000 1.000000 1.000000 1.000000 1.000000 1.000000 1.000000 1.000000 1.000000 1.000000 1.000000 1.000000 1.000000 1.000000 1.000000 
0.205011 0.329593 0.899736 1.822214 1.606894 1.046553 1.000642 1.000000 1.000000 1.000000 1.000000 1.000000 1.000000 1.000000 1.000000 1.000000 1.000000 1.000000 1.000000 1.000000 1.000000 1.000000 1.000000 1.000000 1.000000 1.000000 1.000000 1.000000 1.000000 1.000000 1.000000 1.000000 1.000000 1.000000 1.000000 1.000000 1.000000 1.000000 1.000000 1.000000 1.000000 1.000000 1.000000 1.000000 1.000000 1.000000 1.000000 1.000000 1.000000 1.000000 1.000000 1.000000 1.000000 1.000000 1.000000 1.000000 1.000000 1.000000 1.000000 1.000000 1.000000 1.000000 1.000000 1.000000 1.000000 1.000000 1.000000 1.000000 1.000000 1.000000 1.000000 1.000000 1.000000 1.000000 1.000000 1.000000 1.000000 1.000000 1.000000 1.000000 1.000000 1.000000 1.000000 1.000000 1.000000 1.000000 1.000000 1.000000 1.000000 1.000000 1.000000 1.000000 1.000000 1.000000 1.000000 1.000000 1.000000 1.000000 1.000000 1.000000 
0.582968 1.030646 1.829114 1.674081 1.074207 1.002097 1.000002 1.000000 1.000000 1.000000 1.000000 1.000000 1.000000 1.000000 1.000000 1.000000 1.000000 1.000000 1.000000 1.000000 1.000000 1.000000 1.000000 1.000000 1.000000 1.000000 1.000000 1.000000 1.000000 1.000000 1.000000 1.000000 1.000000 1.000000 1.000000 1.000000 1.000000 1.000000 1.000000 1.000000 1.000000 1.000000 1.000000 1.000000 1.000000 1.000000 1.000000 1.000000 1.000000 1.000000 1.000000 1.000000 1.000000 1.000000 1.000000 1.000000 1.000000 1.000000 1.000000 1.000000 1.000000 1.000000 1.000000 1.000000 1.000000 1.000000 1.000000 1.000000 1.000000 1.000000 1.000000 1.000000 1.000000 1.000000 1.000000 1.000000 1.000000 1.000000 1.000000 1.000000 1.000000 1.000000 1.000000 1.000000 1.000000 1.000000 1.000000 1.000000 1.000000 1.000000 1.000000 1.000000 1.000000 1.000000 1.000000 1.000000 1.000000 1.000000 1.000000 1.000000 
1.423612 1.758362 1.548476 1.069206 1.002824 1.000011 1.000000 1.000000 1.000000 1.000000 1.000000 1.000000 1.000000 1.000000 1.000000 1.000000 1.000000 1.000000 1.000000 1.000000 1.000000 1.000000 1.000000 1.000000 1.000000 1.000000 1.000000 1.000000 1.000000 1.000000 1.000000 1.000000 1.000000 1.000000 1.000000 1.000000 1.000000 1.000000 1.000000 1.000000 1.000000 1.000000 1.000000 1.000000 1.000000 1.000000 1.000000 1.000000 1.000000 1.000000 1.000000 1.000000 1.000000 1.000000 1.000000 1.000000 1.000000 1.000000 1.000000 1.000000 1.000000 1.000000 1.000000 1.000000 1.000000 1.000000 1.000000 1.000000 1.000000 1.000000 1.000000 1.000000 1.000000 1.000000 1.000000 1.000000 1.000000 1.000000 1.000000 1.000000 1.000000 1.000000 1.000000 1.000000 1.000000 1.000000 1.000000 1.000000 1.000000 1.000000 1.000000 1.000000 1.000000 1.000000 1.000000 1.000000 1.000000 1.000000 1.000000 1.000000 
1.452676 1.267903 1.039603 1.001943 1.000010 1.000000 1.000000 1.000000 1.000000 1.000000 1.000000 1.000000 1.000000 1.000000 1.000000 1.000000 1.000000 1.000000 1.000000 1.000000 1.000000 1.000000 1.000000 1.000000 1.000000 1.000000 1.000000 1.000000 1.000000 1.000000 1.000000 1.000000 1.000000 1.000000 1.000000 1.000000 1.000000 1.000000 1.000000 1.000000 1.000000 1.000000 1.000000 1.000000 1.000000 1.000000 1.000000 1.000000 1.000000 1.000000 1.000000 1.000000 1.000000 1.000000 1.000000 1.000000 1.000000 1.000000 1.000000 1.000000 1.000000 1.000000 1.000000 1.000000 1.000000 1.000000 1.000000 1.000000 1.000000 1.000000 1.000000 1.000000 1.000000 1.000000 1.000000 1.000000 1.000000 1.000000 1.000000 1.000000 1.000000 1.000000 1.000000 1.000000 1.000000 1.000000 1.000000 1.000000 1.000000 1.000000 1.000000 1.000000 1.000000 1.000000 1.000000 1.000000 1.000000 1.000000 1.000000 1.000000 
1.033862 1.010011 1.000543 1.000001 1.000000 1.000000 1.000000 1.000000 1.000000 1.000000 1.000000 1.000000 1.000000 1.000000 1.000000 1.000000 1.000000 1.000000 1.000000 1.000000 1.000000 1.000000 1.000000 1.000000 1.000000 1.000000 1.000000 1.000000 1.000000 1.000000 1.000000 1.000000 1.000000 1.000000 1.000000 1.000000 1.000000 1.000000 1.000000 1.000000 1.000000 1.000000 1.000000 1.000000 1.000000 1.000000 1.000000 1.000000 1.000000 1.000000 1.000000 1.000000 1.000000 1.000000 1.000000 1.000000 1.000000 1.000000 1.000000 1.000000 1.000000 1.000000 1.000000 1.000000 1.000000 1.000000 1.000000 1.000000 1.000000 1.000000 1.000000 1.000000 1.000000 1.000000 1.000000 1.000000 1.000000 1.000000 1.000000 1.000000 1.000000 1.000000 1.000000 1.000000 1.000000 1.000000 1.000000 1.000000 1.000000 1.000000 1.000000 1.000000 1.000000 1.000000 1.000000 1.000000 1.000000 1.000000 1.000000 1.000000 
1.000336 1.000019 1.000000 1.000000 1.000000 1.000000 1.000000 1.000000 1.000000 1.000000 1.000000 1.000000 1.000000 1.000000 1.000000 1.000000 1.000000 1.000000 1.000000 1.000000 1.000000 1.000000 1.000000 1.000000 1.000000 1.000000 1.000000 1.000000 1.000000 1.000000 1.000000 1.000000 1.000000 1.000000 1.000000 1.000000 1.000000 1.000000 1.000000 1.000000 1.000000 1.000000 1.000000 1.000000 1.000000 1.000000 1.000000 1.000000 1.000000 1.000000 1.000000 1.000000 1.000000 1.000000 1.000000 1.000000 1.000000 1.000000 1.000000 1.000000 1.000000 1.000000 1.000000 1.000000 1.000000 1.000000 1.000000 1.000000 1.000000 1.000000 1.000000 1.000000 1.000000 1.000000 1.000000 1.000000 1.000000 1.000000 1.000000 1.000000 1.000000 1.000000 1.000000 1.000000 1.000000 1.000000 1.000000 1.000000 1.000000 1.000000 1.000000 1.000000 1.000000 1.000000 1.000000 1.000000 1.000000 1.000000 1.000000 1.000000 
1.000000 1.000000 1.000000 1.000000 1.000000 1.000000 1.000000 1.000000 1.000000 1.000000 1.000000 1.000000 1.000000 1.000000 1.000000 1.000000 1.000000 1.000000 1.000000 1.000000 1.000000 1.000000 1.000000 1.000000 1.000000 1.000000 1.000000 1.000000 1.000000 1.000000 1.000000 1.000000 1.000000 1.000000 1.000000 1.000000 1.000000 1.000000 1.000000 1.000000 1.000000 1.000000 1.000000 1.000000 1.000000 1.000000 1.000000 1.000000 1.000000 1.000000 1.000000 1.000000 1.000000 1.000000 1.000000 1.000000 1.000000 1.000000 1.000000 1.000000 1.000000 1.000000 1.000000 1.000000 1.000000 1.000000 1.000000 1.000000 1.000000 1.000000 1.000000 1.000000 1.000000 1.000000 1.000000 1.000000 1.000000 1.000000 1.000000 1.000000 1.000000 1.000000 1.000000 1.000000 1.000000 1.000000 1.000000 1.000000 1.000000 1.000000 1.000000 1.000000 1.000000 1.000000 1.000000 1.000000 1.000000 1.000000 1.000000 1.000000 
1.000000 1.000000 1.000000 1.000000 1.000000 1.000000 1.000000 1.000000 1.000000 1.000000 1.000000 1.000000 1.000000 1.000000 1.000000 1.000000 1.000000 1.000000 1.000000 1.000000 1.000000 1.000000 1.000000 1.000000 1.000000 1.000000 1.000000 1.000000 1.000000 1.000000 1.000000 1.000000 1.000000 1.000000 1.000000 1.000000 1.000000 1.000000 1.000000 1.000000 1.000000 1.000000 1.000000 1.000000 1.000000 1.000000 1.000000 1.000000 1.000000 1.000000 1.000000 1.000000 1.000000 1.000000 1.000000 1.000000 1.000000 1.000000 1.000000 1.000000 1.000000 1.000000 1.000000 1.000000 1.000000 1.000000 1.000000 1.000000 1.000000 1.000000 1.000000 1.000000 1.000000 1.000000 1.000000 1.000000 1.000000 1.000000 1.000000 1.000000 1.000000 1.000000 1.000000 1.000000 1.000000 1.000000 1.000000 1.000000 1.000000 1.000000 1.000000 1.000000 1.000000 1.000000 1.000000 1.000000 1.000000 1.000000 1.000000 1.000000 
</DataArray>
<DataArray type="Float32" Name="varIU" format="ascii">
0.088440 0.363288 1.373998 6.965096 19.680294 11.680114 0.290369 0.000087 0.000000 0.000000 0.000000 0.000000 0.000000 0.000000 0.000000 0.000000 0.000000 0.000000 0.000000 0.000000 0.000000 0.000000 0.000000 0.000000 0.000000 0.000000 0.000000 0.000000 0.000000 0.000000 0.000000 0.000000 0.000000 0.000000 0.000000 0.000000 0.000000 0.000000 0.000000 0.000000 0.000000 0.000000 0.000000 0.000000 0.000000 0.000000 0.000000 0.000000 0.000000 0.000000 0.000000 0.000000 0.000000 0.000000 0.000000 0.000000 0.000000 0.000000 0.000000 0.000000 0.000000 0.000000 0.000000 0.000000 0.000000 0.000000 0.000000 0.000000 0.000000 0.000000 0.000000 0.000000 0.000000 0.000000 0.000000 0.000000 0.000000 0.000000 0.000000 0.000000 0.000000 0.000000 0.000000 0.000000 0.000000 0.000000 0.000000 0.000000 0.000000 0.000000 0.000000 0.000000 0.000000 0.000000 0.000000 0.000000 0.000000 0.000000 0.000000 0.000000 
0.094422 0.507611 2.557423 12.544906 20.044245 3.626110 0.022711 0.000000 0.000000 0.000000 0.000000 0.000000 0.000000 0.000000 0.000000 0.000000 0.000000 0.000000 0.000000 0.000000 0.000000 0.000000 0.000000 0.000000 0.000000 0.000000 0.000000 0.000000 0.000000 0.000000 0.000000 0.000000 0.000000 0.000000 0.000000 0.000000 0.000000 0.000000 0.000000 0.000000 0.000000 0.000000 0.000000 0.000000 0.000000 0.000000 0.000000 0.000000 0.000000 0.000000 0.000000 0.000000 0.000000 0.000000 0.000000 0.000000 0.000000 0.000000 0.000000 0.000000 0.000000 0.000000 0.000000 0.000000 0.000000 0.000000 0.000000 0.000000 0.000000 0.000000 0.000000 0.000000 0.000000 0.000000 0.000000 0.000000 0.000000 0.000000 0.000000 0.000000 0.000000 0.000000 0.000000 0.000000 0.000000 0.000000 0.000000 0.000000 0.000000 0.000000 0.000000 0.000000 0.000000 0.000000 0.000000 0.000000 0.000000 0.000000 0.000000 0.000000 
0.392659 1.712577 9.108774 19.137739 7.535658 0.156294 0.000097 0.000000 0.000000 0.000000 0.000000 0.000000 0.000000 0.000000 0.000000 0.000000 0.000000 0.000000 0.000000 0.000000 0.000000 0.000000 0.000000 0.000000 0.000000 0.000000 0.000000 0.000000 0.000000 0.000000 0.000000 0.000000 0.000000 0.000000 0.000000 0.000000 0.000000 0.000000 0.000000 0.000000 0.000000 0.000000 0.000000 0.000000 0.000000 0.000000 0.000000 0.000000 0.000000 0.000000 0.000000 0.000000 0.000000 0.000000 0.000000 0.000000 0.000000 0.000000 0.000000 0.000000 0.000000 0.000000 0.000000 0.000000 0.000000 0.000000 0.000000 0.000000 0.000000 0.000000 0.000000 0.000000 0.000000 0.000000 0.000000 0.000000 0.000000 0.000000 0.000000 0.000000 0.000000 0.000000 0.000000 0.000000 0.000000 0.000000 0.000000 0.000000 0.000000 0.000000 0.000000 0.000000 0.000000 0.000000 0.000000 0.000000 0.000000 0.000000 0.000000 0.000000 
1.295567 6.845851 14.592893 7.466887 0.304769 0.000753 0.000000 0.000000 0.000000 0.000000 0.000000 0.000000 0.000000 0.000000 0.000000 0.000000 0.000000 0.000000 0.000000 0.000000 0.000000 0.000000 0.000000 0.000000 0.000000 0.000000 0.000000 0.000000 0.000000 0.000000 0.000000 0.000000 0.000000 0.000000 0.000000 0.000000 0.000000 0.000000 0.000000 0.000000 0.000000 0.000000 0.000000 0.000000 0.000000 0.000000 0.000000 0.000000 0.000000 0.000000 0.000000 0.000000 0.000000 0.000000 0.000000 0.000000 0.000000 0.000000 0.000000 0.000000 0.000000 0.000000 0.000000 0.000000 0.000000 0.000000 0.000000 0.000000 0.000000 0.000000 0.000000 0.000000 0.000000 0.000000 0.000000 0.000000 0.000000 0.000000 0.000000 0.000000 0.000000 0.000000 0.000000 0.000000 0.000000 0.000000 0.000000 0.000000 0.000000 0.000000 0.000000 0.000000 0.000000 0.000000 0.000000 0.000000 0.000000 0.000000 0.000000 0.000000 
2.400153 8.351108 4.457657 0.242244 0.001043 0.000000 0.000000 0.000000 0.000000 0.000000 0.000000 0.000000 0.000000 0.000000 0.000000 0.000000 0.000000 0.000000 0.000000 0.000000 0.000000 0.000000 0.000000 0.000000 0.000000 0.000000 0.000000 0.000000 0.000000 0.000000 0.000000 0.000000 0.000000 0.000000 0.000000 0.000000 0.000000 0.000000 0.000000 0.000000 0.000000 0.000000 0.000000 0.000000 0.000000 0.000000 0.000000 0.000000 0.000000 0.000000 0.000000 0.000000 0.000000 0.000000 0.000000 0.000000 0.000000 0.000000 0.000000 0.000000 0.000000 0.000000 0.000000 0.000000 0.000000 0.000000 0.000000 0.000000 0.000000 0.000000 0.000000 0.000000 0.000000 0.000000 0.000000 0.000000 0.000000 0.000000 0.000000 0.000000 0.000000 0.000000 0.000000 0.000000 0.000000 0.000000 0.000000 0.000000 0.000000 0.000000 0.000000 0.000000 0.000000 0.000000 0.000000 0.000000 0.000000 0.000000 0.000000 0.000000 
0.634135 1.134363 0.076070 0.000423 0.000000 0.000000 0.000000 0.000000 0.000000 0.000000 0.000000 0.000000 0.000000 0.000000 0.000000 0.000000 0.000000 0.000000 0.000000 0.000000 0.000000 0.000000 0.000000 0.000000 0.000000 0.000000 0.000000 0.000000 0.000000 0.000000 0.000000 0.000000 0.000000 0.000000 0.000000 0.000000 0.000000 0.000000 0.000000 0.000000 0.000000 0.000000 0.000000 0.000000 0.000000 0.000000 0.000000 0.000000 0.000000 0.000000 0.000000 0.000000 0.000000 0.000000 0.000000 0.000000 0.000000 0.000000 0.000000 0.000000 0.000000 0.000000 0.000000 0.000000 0.000000 0.000000 0.000000 0.000000 0.000000 0.000000 0.000000 0.000000 0.000000 0.000000 0.000000 0.000000 0.000000 0.000000 0.000000 0.000000 0.000000 0.000000 0.000000 0.000000 0.000000 0.000000 0.000000 0.000000 0.000000 0.000000 0.000000 0.000000 0.000000 0.000000 0.000000 0.000000 0.000000 0.000000 0.000000 0.000000 
0.003018 0.003568 0.000025 0.000000 0.000000 0.000000 0.000000 0.000000 0.000000 0.000000 0.000000 0.000000 0.000000 0.000000 0.000000 0.000000 0.000000 0.000000 0.000000 0.000000 0.000000 0.000000 0.000000 0.000000 0.000000 0.000000 0.000000 0.000000 0.000000 0.000000 0.000000 0.000000 0.000000 0.000000 0.000000 0.000000 0.000000 0.000000 0.000000 0.000000 0.000000 0.000000 0.000000 0.000000 0.000000 0.000000 0.000000 0.000000 0.000000 0.000000 0.000000 0.000000 0.000000 0.000000 0.000000 0.000000 0.000000 0.000000 0.000000 0.000000 0.000000 0.000000 0.000000 0.000000 0.000000 0.000000 0.000000 0.000000 0.000000 0.000000 0.000000 0.000000 0.000000 0.000000 0.000000 0.000000 0.000000 0.000000 0.000000 0.000000 0.000000 0.000000 0.000000 0.000000 0.000000 0.000000 0.000000 0.000000 0.000000 0.000000 0.000000 0.000000 0.000000 0.000000 0.000000 0.000000 0.000000 0.000000 0.000000 0.000000 
0.000000 0.000000 0.000000 0.000000 0.000000 0.000000 0.000000 0.000000 0.000000 0.000000 0.000000 0.000000 0.000000 0.000000 0.000000 0.000000 0.000000 0.000000 0.000000 0.000000 0.000000 0.000000 0.000000 0.000000 0.000000 0.000000 0.000000 0.000000 0.000000 0.000000 0.000000 0.000000 0.000000 0.000000 0.000000 0.000000 0.000000 0.000000 0.000000 0.000000 0.000000 0.000000 0.000000 0.000000 0.000000 0.000000 0.000000 0.000000 0.000000 0.000000 0.000000 0.000000 0.000000 0.000000 0.000000 0.000000 0.000000 0.000000 0.000000 0.000000 0.000000 0.000000 0.000000 0.000000 0.000000 0.000000 0.000000 0.000000 0.000000 0.000000 0.000000 0.000000 0.000000 0.000000 0.000000 0.000000 0.000000 0.000000 0.000000 0.000000 0.000000 0.000000 0.000000 0.000000 0.000000 0.000000 0.000000 0.000000 0.000000 0.000000 0.000000 0.000000 0.000000 0.000000 0.000000 0.000000 0.000000 0.000000 0.000000 0.000000 
0.000000 0.000000 0.000000 0.000000 0.000000 0.000000 0.000000 0.000000 0.000000 0.000000 0.000000 0.000000 0.000000 0.000000 0.000000 0.000000 0.000000 0.000000 0.000000 0.000000 0.000000 0.000000 0.000000 0.000000 0.000000 0.000000 0.000000 0.000000 0.000000 0.000000 0.000000 0.000000 0.000000 0.000000 0.000000 0.000000 0.000000 0.000000 0.000000 0.000000 0.000000 0.000000 0.000000 0.000000 0.000000 0.000000 0.000000 0.000000 0.000000 0.000000 0.000000 0.000000 0.000000 0.000000 0.000000 0.000000 0.000000 0.000000 0.000000 0.000000 0.000000 0.000000 0.000000 0.000000 0.000000 0.000000 0.000000 0.000000 0.000000 0.000000 0.000000 0.000000 0.000000 0.000000 0.000000 0.000000 0.000000 0.000000 0.000000 0.000000 0.000000 0.000000 0.000000 0.000000 0.000000 0.000000 0.000000 0.000000 0.000000 0.000000 0.000000 0.000000 0.000000 0.000000 0.000000 0.000000 0.000000 0.000000 0.000000 0.000000 
0.000000 0.000000 0.000000 0.000000 0.000000 0.000000 0.000000 0.000000 0.000000 0.000000 0.000000 0.000000 0.000000 0.000000 0.000000 0.000000 0.000000 0.000000 0.000000 0.000000 0.000000 0.000000 0.000000 0.000000 0.000000 0.000000 0.000000 0.000000 0.000000 0.000000 0.000000 0.000000 0.000000 0.000000 0.000000 0.000000 0.000000 0.000000 0.000000 0.000000 0.000000 0.000000 0.000000 0.000000 0.000000 0.000000 0.000000 0.000000 0.000000 0.000000 0.000000 0.000000 0.000000 0.000000 0.000000 0.000000 0.000000 0.000000 0.000000 0.000000 0.000000 0.000000 0.000000 0.000000 0.000000 0.000000 0.000000 0.000000 0.000000 0.000000 0.000000 0.000000 0.000000 0.000000 0.000000 0.000000 0.000000 0.000000 0.000000 0.000000 0.000000 0.000000 0.000000 0.000000 0.000000 0.000000 0.000000 0.000000 0.000000 0.000000 0.000000 0.000000 0.000000 0.000000 0.000000 0.000000 0.000000 0.000000 0.000000 0.000000 
</DataArray>
<DataArray type="Float32" Name="varIV" format="ascii">
0.135872 0.043538 0.313371 1.322887 2.498456 0.715174 0.005952 0.000000 0.000000 0.000000 0.000000 0.000000 0.000000 0.000000 0.000000 0.000000 0.000000 0.000000 0.000000 0.000000 0.000000 0.000000 0.000000 0.000000 0.000000 0.000000 0.000000 0.000000 0.000000 0.000000 0.000000 0.000000 0.000000 0.000000 0.000000 0.000000 0.000000 0.000000 0.000000 0.000000 0.000000 0.000000 0.000000 0.000000 0.000000 0.000000 0.000000 0.000000 0.000000 0.000000 0.000000 0.000000 0.000000 0.000000 0.000000 0.000000 0.000000 0.000000 0.000000 0.000000 0.000000 0.000000 0.000000 0.000000 0.000000 0.000000 0.000000 0.000000 0.000000 0.000000 0.000000 0.000000 0.000000 0.000000 0.000000 0.000000 0.000000 0.000000 0.000000 0.000000 0.000000 0.000000 0.000000 0.000000 0.000000 0.000000 0.000000 0.000000 0.000000 0.000000 0.000000 0.000000 0.000000 0.000000 0.000000 0.000000 0.000000 0.000000 0.000000 0.000000 