<?xml version="1.0"?>
<VTKFile type="StructuredGrid">
<StructuredGrid WholeExtent=" 0 100 0 10 0 0">
<Piece Extent=" 0 100 0 10 0 0">
<Points>
<DataArray type="Float32" format="ascii" NumberOfComponents="3">
0.000000 0.000000 0.000000
0.010000 0.000000 0.000000
0.020000 0.000000 0.000000
0.030000 0.000000 0.000000
0.040000 0.000000 0.000000
0.050000 0.000000 0.000000
0.060000 0.000000 0.000000
0.070000 0.000000 0.000000
0.080000 0.000000 0.000000
0.090000 0.000000 0.000000
0.100000 0.000000 0.000000
0.110000 0.000000 0.000000
0.120000 0.000000 0.000000
0.130000 0.000000 0.000000
0.140000 0.000000 0.000000
0.150000 0.000000 0.000000
0.160000 0.000000 0.000000
0.170000 0.000000 0.000000
0.180000 0.000000 0.000000
0.190000 0.000000 0.000000
0.200000 0.000000 0.000000
0.210000 0.000000 0.000000
0.220000 0.000000 0.000000
0.230000 0.000000 0.000000
0.240000 0.000000 0.000000
0.250000 0.000000 0.000000
0.260000 0.000000 0.000000
0.270000 0.000000 0.000000
0.280000 0.000000 0.000000
0.290000 0.000000 0.000000
0.300000 0.000000 0.000000
0.310000 0.000000 0.000000
0.320000 0.000000 0.000000
0.330000 0.000000 0.000000
0.340000 0.000000 0.000000
0.350000 0.000000 0.000000
0.360000 0.000000 0.000000
0.370000 0.000000 0.000000
0.380000 0.000000 0.000000
0.390000 0.000000 0.000000
0.400000 0.000000 0.000000
0.410000 0.000000 0.000000
0.420000 0.000000 0.000000
0.430000 0.000000 0.000000
0.440000 0.000000 0.000000
0.450000 0.000000 0.000000
0.460000 0.000000 0.000000
0.470000 0.000000 0.000000
0.480000 0.000000 0.000000
0.490000 0.000000 0.000000
0.500000 0.000000 0.000000
0.510000 0.000000 0.000000
0.520000 0.000000 0.000000
0.530000 0.000000 0.000000
0.540000 0.000000 0.000000
0.550000 0.000000 0.000000
0.560000 0.000000 0.000000
0.570000 0.000000 0.000000
0.580000 0.000000 0.000000
0.590000 0.000000 0.000000
0.600000 0.000000 0.000000
0.610000 0.000000 0.000000
0.620000 0.000000 0.000000
0.630000 0.000000 0.000000
0.640000 0.000000 0.000000
0.650000 0.000000 0.000000
0.660000 0.000000 0.000000
0.670000 0.000000 0.000000
0.680000 0.000000 0.000000
0.690000 0.000000 0.000000
0.700000 0.000000 0.000000
0.710000 0.000000 0.000000
0.720000 0.000000 0.000000
0.730000 0.000000 0.000000
0.740000 0.000000 0.000000
0.750000 0.000000 0.000000
0.760000 0.000000 0.000000
0.770000 0.000000 0.000000
0.780000 0.000000 0.000000
0.790000 0.000000 0.000000
0.800000 0.000000 0.000000
0.810000 0.000000 0.000000
0.820000 0.000000 0.000000
0.830000 0.000000 0.000000
0.840000 0.000000 0.000000
0.850000 0.000000 0.000000
0.860000 0.000000 0.000000
0.870000 0.000000 0.000000
0.880000 0.000000 0.000000
0.890000 0.000000 0.000000
0.900000 0.000000 0.000000
0.910000 0.000000 0.000000
0.920000 0.000000 0.000000
0.930000 0.000000 0.000000
0.940000 0.000000 0.000000
0.950000 0.000000 0.000000
0.960000 0.000000 0.000000
0.970000 0.000000 0.000000
0.980000 0.000000 0.000000
0.990000 0.000000 0.000000
1.000000 0.000000 0.000000
0.000000 0.010000 0.000000
0.010000 0.010000 0.000000
0.020000 0.010000 0.000000
0.030000 0.010000 0.000000
0.040000 0.010000 0.000000
0.050000 0.010000 0.000000
0.060000 0.010000 0.000000
0.070000 0.010000 0.000000
0.080000 0.010000 0.000000
0.090000 0.010000 0.000000
0.100000 0.010000 0.000000
0.110000 0.010000 0.000000
0.120000 0.010000 0.000000
0.130000 0.010000 0.000000
0.140000 0.010000 0.000000
0.150000 0.010000 0.000000
0.160000 0.010000 0.000000
0.170000 0.010000 0.000000
0.180000 0.010000 0.000000
0.190000 0.010000 0.000000
0.200000 0.010000 0.000000
0.210000 0.010000 0.000000
0.220000 0.010000 0.000000
0.230000 0.010000 0.000000
0.240000 0.010000 0.000000
0.250000 0.010000 0.000000
0.260000 0.010000 0.000000
0.270000 0.010000 0.000000
0.280000 0.010000 0.000000
0.290000 0.010000 0.000000
0.300000 0.010000 0.000000
0.310000 0.010000 0.000000
0.320000 0.010000 0.000000
0.330000 0.010000 0.000000
0.340000 0.010000 0.000000
0.350000 0.010000 0.000000
0.360000 0.010000 0.000000
0.370000 0.010000 0.000000
0.380000 0.010000 0.000000
0.390000 0.010000 0.000000
0.400000 0.010000 0.000000
0.410000 0.010000 0.000000
0.420000 0.010000 0.000000
0.430000 0.010000 0.000000
0.440000 0.010000 0.000000
0.450000 0.010000 0.000000
0.460000 0.010000 0.000000
0.470000 0.010000 0.000000
0.480000 0.010000 0.000000
0.490000 0.010000 0.000000
0.500000 0.010000 0.000000
0.510000 0.010000 0.000000
0.520000 0.010000 0.000000
0.530000 0.010000 0.000000
0.540000 0.010000 0.000000
0.550000 0.010000 0.000000
0.560000 0.010000 0.000000
0.570000 0.010000 0.000000
0.580000 0.010000 0.000000
0.590000 0.010000 0.000000
0.600000 0.010000 0.000000
0.610000 0.010000 0.000000
0.620000 0.010000 0.000000
0.630000 0.010000 0.000000
0.640000 0.010000 0.000000
0.650000 0.010000 0.000000
0.660000 0.010000 0.000000
0.670000 0.010000 0.000000
0.680000 0.010000 0.000000
0.690000 0.010000 0.000000
0.700000 0.010000 0.000000
0.710000 0.010000 0.000000
0.720000 0.010000 0.000000
0.730000 0.010000 0.000000
0.740000 0.010000 0.000000
0.750000 0.010000 0.000000
0.760000 0.010000 0.000000
0.770000 0.010000 0.000000
0.780000 0.010000 0.000000
0.790000 0.010000 0.000000
0.800000 0.010000 0.000000
0.810000 0.010000 0.000000
0.820000 0.010000 0.000000
0.830000 0.010000 0.000000
0.840000 0.010000 0.000000
0.850000 0.010000 0.000000
0.860000 0.010000 0.000000
0.870000 0.010000 0.000000
0.880000 0.010000 0.000000
0.890000 0.010000 0.000000
0.900000 0.010000 0.000000
0.910000 0.010000 0.000000
0.920000 0.010000 0.000000
0.930000 0.010000 0.000000
0.940000 0.010000 0.000000
0.950000 0.010000 0.000000
0.960000 0.010000 0.000000
0.970000 0.010000 0.000000
0.980000 0.010000 0.000000
0.990000 0.010000 0.000000
1.000000 0.010000 0.000000
0.000000 0.020000 0.000000
0.010000 0.020000 0.000000
0.020000 0.020000 0.000000
0.030000 0.020000 0.000000
0.040000 0.020000 0.000000
0.050000 0.020000 0.000000
0.060000 0.020000 0.000000
0.070000 0.020000 0.000000
0.080000 0.020000 0.000000
0.090000 0.020000 0.000000
0.100000 0.020000 0.000000
0.110000 0.020000 0.000000
0.120000 0.020000 0.000000
0.130000 0.020000 0.000000
0.140000 0.020000 0.000000
0.150000 0.020000 0.000000
0.160000 0.020000 0.000000
0.170000 0.020000 0.000000
0.180000 0.020000 0.000000
0.190000 0.020000 0.000000
0.200000 0.020000 0.000000
0.210000 0.020000 0.000000
0.220000 0.020000 0.000000
0.230000 0.020000 0.000000
0.240000 0.020000 0.000000
0.250000 0.020000 0.000000
0.260000 0.020000 0.000000
0.270000 0.020000 0.000000
0.280000 0.020000 0.000000
0.290000 0.020000 0.000000
0.300000 0.020000 0.000000
0.310000 0.020000 0.000000
0.320000 0.020000 0.000000
0.330000 0.020000 0.000000
0.340000 0.020000 0.000000
0.350000 0.020000 0.000000
0.360000 0.020000 0.000000
0.370000 0.020000 0.000000
0.380000 0.020000 0.000000
0.390000 0.020000 0.000000
0.400000 0.020000 0.000000
0.410000 0.020000 0.000000
0.420000 0.020000 0.000000
0.430000 0.020000 0.000000
0.440000 0.020000 0.000000
0.450000 0.020000 0.000000
0.460000 0.020000 0.000000
0.470000 0.020000 0.000000
0.480000 0.020000 0.000000
0.490000 0.020000 0.000000
0.500000 0.020000 0.000000
0.510000 0.020000 0.000000
0.520000 0.020000 0.000000
0.530000 0.020000 0.000000
0.540000 0.020000 0.000000
0.550000 0.020000 0.000000
0.560000 0.020000 0.000000
0.570000 0.020000 0.000000
0.580000 0.020000 0.000000
0.590000 0.020000 0.000000
0.600000 0.020000 0.000000
0.610000 0.020000 0.000000
0.620000 0.020000 0.000000
0.630000 0.020000 0.000000
0.640000 0.020000 0.000000
0.650000 0.020000 0.000000
0.660000 0.020000 0.000000
0.670000 0.020000 0.000000
0.680000 0.020000 0.000000
0.690000 0.020000 0.000000
0.700000 0.020000 0.000000
0.710000 0.020000 0.000000
0.720000 0.020000 0.000000
0.730000 0.020000 0.000000
0.740000 0.020000 0.000000
0.750000 0.020000 0.000000
0.760000 0.020000 0.000000
0.770000 0.020000 0.000000
0.780000 0.020000 0.000000
0.790000 0.020000 0.000000
0.800000 0.020000 0.000000
0.810000 0.020000 0.000000
0.820000 0.020000 0.000000
0.830000 0.020000 0.000000
0.840000 0.020000 0.000000
0.850000 0.020000 0.000000
0.860000 0.020000 0.000000
0.870000 0.020000 0.000000
0.880000 0.020000 0.000000
0.890000 0.020000 0.000000
0.900000 0.020000 0.000000
0.910000 0.020000 0.000000
0.920000 0.020000 0.000000
0.930000 0.020000 0.000000
0.940000 0.020000 0.000000
0.950000 0.020000 0.000000
0.960000 0.020000 0.000000
0.970000 0.020000 0.000000
0.980000 0.020000 0.000000
0.990000 0.020000 0.000000
1.000000 0.020000 0.000000
0.000000 0.030000 0.000000
0.010000 0.030000 0.000000
0.020000 0.030000 0.000000
0.030000 0.030000 0.000000
0.040000 0.030000 0.000000
0.050000 0.030000 0.000000
0.060000 0.030000 0.000000
0.070000 0.030000 0.000000
0.080000 0.030000 0.000000
0.090000 0.030000 0.000000
0.100000 0.030000 0.000000
0.110000 0.030000 0.000000
0.120000 0.030000 0.000000
0.130000 0.030000 0.000000
0.140000 0.030000 0.000000
0.150000 0.030000 0.000000
0.160000 0.030000 0.000000
0.170000 0.030000 0.000000
0.180000 0.030000 0.000000
0.190000 0.030000 0.000000
0.200000 0.030000 0.000000
0.210000 0.030000 0.000000
0.220000 0.030000 0.000000
0.230000 0.030000 0.000000
0.240000 0.030000 0.000000
0.250000 0.030000 0.000000
0.260000 0.030000 0.000000
0.270000 0.030000 0.000000
0.280000 0.030000 0.000000
0.290000 0.030000 0.000000
0.300000 0.030000 0.000000
0.310000 0.030000 0.000000
0.320000 0.030000 0.000000
0.330000 0.030000 0.000000
0.340000 0.030000 0.000000
0.350000 0.030000 0.000000
0.360000 0.030000 0.000000
0.370000 0.030000 0.000000
0.380000 0.030000 0.000000
0.390000 0.030000 0.000000
0.400000 0.030000 0.000000
0.410000 0.030000 0.000000
0.420000 0.030000 0.000000
0.430000 0.030000 0.000000
0.440000 0.030000 0.000000
0.450000 0.030000 0.000000
0.460000 0.030000 0.000000
0.470000 0.030000 0.000000
0.480000 0.030000 0.000000
0.490000 0.030000 0.000000
0.500000 0.030000 0.000000
0.510000 0.030000 0.000000
0.520000 0.030000 0.000000
0.530000 0.030000 0.000000
0.540000 0.030000 0.000000
0.550000 0.030000 0.000000
0.560000 0.030000 0.000000
0.570000 0.030000 0.000000
0.580000 0.030000 0.000000
[...]
<CellData Scalars=" varID varIU varIV">
<DataArray type="Float32" Name="varID" format="ascii">
0.028621 0.028599 0.028573 0.029004 0.030660 0.034819 0.043739 0.061403 0.095284 0.151944 0.217100 0.282751 0.406190 0.635094 1.093689 1.905594 2.438720 2.069108 1.158937 1.009316 1.000155 1.000000 1.000000 1.000000 1.000000 1.000000 1.000000 1.000000 1.000000 1.000000 1.000000 1.000000 1.000000 1.000000 1.000000 1.000000 1.000000 1.000000 1.000000 1.000000 1.000000 1.000000 1.000000 1.000000 1.000000 1.000000 1.000000 1.000000 1.000000 1.000000 1.000000 1.000000 1.000000 1.000000 1.000000 1.000000 1.000000 1.000000 1.000000 1.000000 1.000000 1.000000 1.000000 1.000000 1.000000 1.000000 1.000000 1.000000 1.000000 1.000000 1.000000 1.000000 1.000000 1.000000 1.000000 1.000000 1.000000 1.000000 1.000000 1.000000 1.000000 1.000000 1.000000 1.000000 1.000000 1.000000 1.000000 1.000000 1.000000 1.000000 1.000000 1.000000 1.000000 1.000000 1.000000 1.000000 1.000000 1.000000 1.000000 1.000000 
0.053217 0.052238 0.049849 0.047333 0.046872 0.049335 0.057699 0.076585 0.113000 0.173856 0.238479 0.306088 0.436045 0.677704 1.164974 2.002087 2.488446 2.009453 1.129918 1.007039 1.000093 1.000000 1.000000 1.000000 1.000000 1.000000 1.000000 1.000000 1.000000 1.000000 1.000000 1.000000 1.000000 1.000000 1.000000 1.000000 1.000000 1.000000 1.000000 1.000000 1.000000 1.000000 1.000000 1.000000 1.000000 1.000000 1.000000 1.000000 1.000000 1.000000 1.000000 1.000000 1.000000 1.000000 1.000000 1.000000 1.000000 1.000000 1.000000 1.000000 1.000000 1.000000 1.000000 1.000000 1.000000 1.000000 1.000000 1.000000 1.000000 1.000000 1.000000 1.000000 1.000000 1.000000 1.000000 1.000000 1.000000 1.000000 1.000000 1.000000 1.000000 1.000000 1.000000 1.000000 1.000000 1.000000 1.000000 1.000000 1.000000 1.000000 1.000000 1.000000 1.000000 1.000000 1.000000 1.000000 1.000000 1.000000 1.000000 1.000000 
0.108794 0.105764 0.098534 0.089958 0.084769 0.084151 0.089842 0.108878 0.147278 0.212944 0.279133 0.354128 0.499376 0.768674 1.314779 2.167996 2.515858 1.825457 1.085593 1.003978 1.000032 1.000000 1.000000 1.000000 1.000000 1.000000 1.000000 1.000000 1.000000 1.000000 1.000000 1.000000 1.000000 1.000000 1.000000 1.000000 1.000000 1.000000 1.000000 1.000000 1.000000 1.000000 1.000000 1.000000 1.000000 1.000000 1.000000 1.000000 1.000000 1.000000 1.000000 1.000000 1.000000 1.000000 1.000000 1.000000 1.000000 1.000000 1.000000 1.000000 1.000000 1.000000 1.000000 1.000000 1.000000 1.000000 1.000000 1.000000 1.000000 1.000000 1.000000 1.000000 1.000000 1.000000 1.000000 1.000000 1.000000 1.000000 1.000000 1.000000 1.000000 1.000000 1.000000 1.000000 1.000000 1.000000 1.000000 1.000000 1.000000 1.000000 1.000000 1.000000 1.000000 1.000000 1.000000 1.000000 1.000000 1.000000 1.000000 1.000000 
0.189489 0.185128 0.175514 0.163590 0.152984 0.148065 0.150186 0.167662 0.208023 0.273894 0.344962 0.431772 0.602822 0.923273 1.573473 2.396670 2.504286 1.558587 1.043734 1.001467 1.000003 1.000000 1.000000 1.000000 1.000000 1.000000 1.000000 1.000000 1.000000 1.000000 1.000000 1.000000 1.000000 1.000000 1.000000 1.000000 1.000000 1.000000 1.000000 1.000000 1.000000 1.000000 1.000000 1.000000 1.000000 1.000000 1.000000 1.000000 1.000000 1.000000 1.000000 1.000000 1.000000 1.000000 1.000000 1.000000 1.000000 1.000000 1.000000 1.000000 1.000000 1.000000 1.000000 1.000000 1.000000 1.000000 1.000000 1.000000 1.000000 1.000000 1.000000 1.000000 1.000000 1.000000 1.000000 1.000000 1.000000 1.000000 1.000000 1.000000 1.000000 1.000000 1.000000 1.000000 1.000000 1.000000 1.000000 1.000000 1.000000 1.000000 1.000000 1.000000 1.000000 1.000000 1.000000 1.000000 1.000000 1.000000 1.000000 1.000000 
0.254129 0.250454 0.243949 0.236966 0.231031 0.229418 0.234595 0.256518 0.310693 0.374474 0.452167 0.546180 0.753737 1.166031 1.970956 2.615759 2.346022 1.256865 1.015433 1.000298 1.000000 1.000000 1.000000 1.000000 1.000000 1.000000 1.000000 1.000000 1.000000 1.000000 1.000000 1.000000 1.000000 1.000000 1.000000 1.000000 1.000000 1.000000 1.000000 1.000000 1.000000 1.000000 1.000000 1.000000 1.000000 1.000000 1.000000 1.000000 1.000000 1.000000 1.000000 1.000000 1.000000 1.000000 1.000000 1.000000 1.000000 1.000000 1.000000 1.000000 1.000000 1.000000 1.000000 1.000000 1.000000 1.000000 1.000000 1.000000 1.000000 1.000000 1.000000 1.000000 1.000000 1.000000 1.000000 1.000000 1.000000 1.000000 1.000000 1.000000 1.000000 1.000000 1.000000 1.000000 1.000000 1.000000 1.000000 1.000000 1.000000 1.000000 1.000000 1.000000 1.000000 1.000000 1.000000 1.000000 1.000000 1.000000 1.000000 1.000000 
0.333254 0.331294 0.330048 0.332661 0.338510 0.348601 0.366502 0.402309 0.481864 0.556514 0.629380 0.713419 0.966513 1.540393 2.432693 2.709758 1.883645 1.084339 1.003515 1.000021 1.000000 1.000000 1.000000 1.000000 1.000000 1.000000 1.000000 1.000000 1.000000 1.000000 1.000000 1.000000 1.000000 1.000000 1.000000 1.000000 1.000000 1.000000 1.000000 1.000000 1.000000 1.000000 1.000000 1.000000 1.000000 1.000000 1.000000 1.000000 1.000000 1.000000 1.000000 1.000000 1.000000 1.000000 1.000000 1.000000 1.000000 1.000000 1.000000 1.000000 1.000000 1.000000 1.000000 1.000000 1.000000 1.000000 1.000000 1.000000 1.000000 1.000000 1.000000 1.000000 1.000000 1.000000 1.000000 1.000000 1.000000 1.000000 1.000000 1.000000 1.000000 1.000000 1.000000 1.000000 1.000000 1.000000 1.000000 1.000000 1.000000 1.000000 1.000000 1.000000 1.000000 1.000000 1.000000 1.000000 1.000000 1.000000 1.000000 1.000000 
0.436480 0.442391 0.452837 0.470449 0.496490 0.531625 0.579478 0.651480 0.770213 0.891010 0.944554 1.007382 1.308127 2.091830 2.747715 2.528999 1.326443 1.019831 1.000400 1.000000 1.000000 1.000000 1.000000 1.000000 1.000000 1.000000 1.000000 1.000000 1.000000 1.000000 1.000000 1.000000 1.000000 1.000000 1.000000 1.000000 1.000000 1.000000 1.000000 1.000000 1.000000 1.000000 1.000000 1.000000 1.000000 1.000000 1.000000 1.000000 1.000000 1.000000 1.000000 1.000000 1.000000 1.000000 1.000000 1.000000 1.000000 1.000000 1.000000 1.000000 1.000000 1.000000 1.000000 1.000000 1.000000 1.000000 1.000000 1.000000 1.000000 1.000000 1.000000 1.000000 1.000000 1.000000 1.000000 1.000000 1.000000 1.000000 1.000000 1.000000 1.000000 1.000000 1.000000 1.000000 1.000000 1.000000 1.000000 1.000000 1.000000 1.000000 1.000000 1.000000 1.000000 1.000000 1.000000 1.000000 1.000000 1.000000 1.000000 1.000000 
0.525027 0.541143 0.570659 0.619929 0.689510 0.781325 0.898516 1.040003 1.222351 1.438733 1.580850 1.654210 1.946276 2.623400 2.803823 1.817669 1.071474 1.002663 1.000009 1.000000 1.000000 1.000000 1.000000 1.000000 1.000000 1.000000 1.000000 1.000000 1.000000 1.000000 1.000000 1.000000 1.000000 1.000000 1.000000 1.000000 1.000000 1.000000 1.000000 1.000000 1.000000 1.000000 1.000000 1.000000 1.000000 1.000000 1.000000 1.000000 1.000000 1.000000 1.000000 1.000000 1.000000 1.000000 1.000000 1.000000 1.000000 1.000000 1.000000 1.000000 1.000000 1.000000 1.000000 1.000000 1.000000 1.000000 1.000000 1.000000 1.000000 1.000000 1.000000 1.000000 1.000000 1.000000 1.000000 1.000000 1.000000 1.000000 1.000000 1.000000 1.000000 1.000000 1.000000 1.000000 1.000000 1.000000 1.000000 1.000000 1.000000 1.000000 1.000000 1.000000 1.000000 1.000000 1.000000 1.000000 1.000000 1.000000 1.000000 1.000000 
0.581907 0.606151 0.650715 0.724551 0.830805 0.975845 1.171960 1.431967 1.773690 2.229706 2.673180 3.015234 3.277023 3.275332 2.279850 1.154546 1.008608 1.000097 1.000000 1.000000 1.000000 1.000000 1.000000 1.000000 1.000000 1.000000 1.000000 1.000000 1.000000 1.000000 1.000000 1.000000 1.000000 1.000000 1.000000 1.000000 1.000000 1.000000 1.000000 1.000000 1.000000 1.000000 1.000000 1.000000 1.000000 1.000000 1.000000 1.000000 1.000000 1.000000 1.000000 1.000000 1.000000 1.000000 1.000000 1.000000 1.000000 1.000000 1.000000 1.000000 1.000000 1.000000 1.000000 1.000000 1.000000 1.000000 1.000000 1.000000 1.000000 1.000000 1.000000 1.000000 1.000000 1.000000 1.000000 1.000000 1.000000 1.000000 1.000000 1.000000 1.000000 1.000000 1.000000 1.000000 1.000000 1.000000 1.000000 1.000000 1.000000 1.000000 1.000000 1.000000 1.000000 1.000000 1.000000 1.000000 1.000000 1.000000 1.000000 1.000000 
0.606823 0.635833 0.689015 0.776115 0.901289 1.073340 1.313253 1.652052 2.148185 2.916656 4.152673 5.447688 5.721756 4.440417 1.694345 1.041078 1.000999 1.000001 1.000000 1.000000 1.000000 1.000000 1.000000 1.000000 1.000000 1.000000 1.000000 1.000000 1.000000 1.000000 1.000000 1.000000 1.000000 1.000000 1.000000 1.000000 1.000000 1.000000 1.000000 1.000000 1.000000 1.000000 1.000000 1.000000 1.000000 1.000000 1.000000 1.000000 1.000000 1.000000 1.000000 1.000000 1.000000 1.000000 1.000000 1.000000 1.000000 1.000000 1.000000 1.000000 1.000000 1.000000 1.000000 1.000000 1.000000 1.000000 1.000000 1.000000 1.000000 1.000000 1.000000 1.000000 1.000000 1.000000 1.000000 1.000000 1.000000 1.000000 1.000000 1.000000 1.000000 1.000000 1.000000 1.000000 1.000000 1.000000 1.000000 1.000000 1.000000 1.000000 1.000000 1.000000 1.000000 1.000000 1.000000 1.000000 1.000000 1.000000 1.000000 1.000000 
</DataArray>
<DataArray type="Float32" Name="varIU" format="ascii">
0.028837 0.085980 0.138449 0.183929 0.226606 0.280193 0.367439 0.521876 0.777121 1.108493 1.178029 1.055866 1.447022 2.425570 4.806242 8.759732 10.248748 5.258632 0.359593 0.003619 0.000002 0.000000 0.000000 0.000000 0.000000 0.000000 0.000000 0.000000 0.000000 0.000000 0.000000 0.000000 0.000000 0.000000 0.000000 0.000000 0.000000 0.000000 0.000000 0.000000 0.000000 0.000000 0.000000 0.000000 0.000000 0.000000 0.000000 0.000000 0.000000 0.000000 0.000000 0.000000 0.000000 0.000000 0.000000 0.000000 0.000000 0.000000 0.000000 0.000000 0.000000 0.000000 0.000000 0.000000 0.000000 0.000000 0.000000 0.000000 0.000000 0.000000 0.000000 0.000000 0.000000 0.000000 0.000000 0.000000 0.000000 0.000000 0.000000 0.000000 0.000000 0.000000 0.000000 0.000000 0.000000 0.000000 0.000000 0.000000 0.000000 0.000000 0.000000 0.000000 0.000000 0.000000 0.000000 0.000000 0.000000 0.000000 0.000000 0.000000 
0.030748 0.092673 0.150571 0.201964 0.254126 0.313365 0.407314 0.571880 0.842305 1.187149 1.214055 1.118087 1.550444 2.598743 5.135357 9.107268 10.164243 4.615573 0.258915 0.002142 0.000001 0.000000 0.000000 0.000000 0.000000 0.000000 0.000000 0.000000 0.000000 0.000000 0.000000 0.000000 0.000000 0.000000 0.000000 0.000000 0.000000 0.000000 0.000000 0.000000 0.000000 0.000000 0.000000 0.000000 0.000000 0.000000 0.000000 0.000000 0.000000 0.000000 0.000000 0.000000 0.000000 0.000000 0.000000 0.000000 0.000000 0.000000 0.000000 0.000000 0.000000 0.000000 0.000000 0.000000 0.000000 0.000000 0.000000 0.000000 0.000000 0.000000 0.000000 0.000000 0.000000 0.000000 0.000000 0.000000 0.000000 0.000000 0.000000 0.000000 0.000000 0.000000 0.000000 0.000000 0.000000 0.000000 0.000000 0.000000 0.000000 0.000000 0.000000 0.000000 0.000000 0.000000 0.000000 0.000000 0.000000 0.000000 0.000000 0.000000 
0.027639 0.084422 0.141277 0.198730 0.265220 0.350684 0.469069 0.668928 0.988592 1.336969 1.307136 1.268587 1.774936 2.963785 5.803488 9.700175 9.810250 3.485182 0.143037 0.000783 0.000000 0.000000 0.000000 0.000000 0.000000 0.000000 0.000000 0.000000 0.000000 0.000000 0.000000 0.000000 0.000000 0.000000 0.000000 0.000000 0.000000 0.000000 0.000000 0.000000 0.000000 0.000000 0.000000 0.000000 0.000000 0.000000 0.000000 0.000000 0.000000 0.000000 0.000000 0.000000 0.000000 0.000000 0.000000 0.000000 0.000000 0.000000 0.000000 0.000000 0.000000 0.000000 0.000000 0.000000 0.000000 0.000000 0.000000 0.000000 0.000000 0.000000 0.000000 0.000000 0.000000 0.000000 0.000000 0.000000 0.000000 0.000000 0.000000 0.000000 0.000000 0.000000 0.000000 0.000000 0.000000 0.000000 0.000000 0.000000 0.000000 0.000000 0.000000 0.000000 0.000000 0.000000 0.000000 0.000000 0.000000 0.000000 0.000000 0.000000 
0.015264 0.046292 0.092428 0.159770 0.251495 0.372868 0.539759 0.820112 1.231229 1.587489 1.530371 1.532251 2.136858 3.581654 6.907563 10.413413 8.872650 1.959696 0.047507 0.000126 0.000000 0.000000 0.000000 0.000000 0.000000 0.000000 0.000000 0.000000 0.000000 0.000000 0.000000 0.000000 0.000000 0.000000 0.000000 0.000000 0.000000 0.000000 0.000000 0.000000 0.000000 0.000000 0.000000 0.000000 0.000000 0.000000 0.000000 0.000000 0.000000 0.000000 0.000000 0.000000 0.000000 0.000000 0.000000 0.000000 0.000000 0.000000 0.000000 0.000000 0.000000 0.000000 0.000000 0.000000 0.000000 0.000000 0.000000 0.000000 0.000000 0.000000 0.000000 0.000000 0.000000 0.000000 0.000000 0.000000 0.000000 0.000000 0.000000 0.000000 0.000000 0.000000 0.000000 0.000000 0.000000 0.000000 0.000000 0.000000 0.000000 0.000000 0.000000 0.000000 0.000000 0.000000 0.000000 0.000000 0.000000 0.000000 0.000000 0.000000 
0.005336 0.011733 0.043481 0.107816 0.218699 0.382654 0.614304 1.014035 1.612540 2.059397 2.013186 1.942764 2.671496 4.580138 8.510901 10.793299 6.743145 0.650631 0.008014 0.000007 0.000000 0.000000 0.000000 0.000000 0.000000 0.000000 0.000000 0.000000 0.000000 0.000000 0.000000 0.000000 0.000000 0.000000 0.000000 0.000000 0.000000 0.000000 0.000000 0.000000 0.000000 0.000000 0.000000 0.000000 0.000000 0.000000 0.000000 0.000000 0.000000 0.000000 0.000000 0.000000 0.000000 0.000000 0.000000 0.000000 0.000000 0.000000 0.000000 0.000000 0.000000 0.000000 0.000000 0.000000 0.000000 0.000000 0.000000 0.000000 0.000000 0.000000 0.000000 0.000000 0.000000 0.000000 0.000000 0.000000 0.000000 0.000000 0.000000 0.000000 0.000000 0.000000 0.000000 0.000000 0.000000 0.000000 0.000000 0.000000 0.000000 0.000000 0.000000 0.000000 0.000000 0.000000 0.000000 0.000000 0.000000 0.000000 0.000000 0.000000 
0.005445 0.007896 0.043874 0.119135 0.259791 0.484751 0.817666 1.363054 2.282205 2.966879 2.961088 2.614473 3.475404 6.163927 10.178268 10.103132 3.456967 0.126850 0.000584 0.000000 0.000000 0.000000 0.000000 0.000000 0.000000 0.000000 0.000000 0.000000 0.000000 0.000000 0.000000 0.000000 0.000000 0.000000 0.000000 0.000000 0.000000 0.000000 0.000000 0.000000 0.000000 0.000000 0.000000 0.000000 0.000000 0.000000 0.000000 0.000000 0.000000 0.000000 0.000000 0.000000 0.000000 0.000000 0.000000 0.000000 0.000000 0.000000 0.000000 0.000000 0.000000 0.000000 0.000000 0.000000 0.000000 0.000000 0.000000 0.000000 0.000000 0.000000 0.000000 0.000000 0.000000 0.000000 0.000000 0.000000 0.000000 0.000000 0.000000 0.000000 0.000000 0.000000 0.000000 0.000000 0.000000 0.000000 0.000000 0.000000 0.000000 0.000000 0.000000 0.000000 0.000000 0.000000 0.000000 0.000000 0.000000 0.000000 0.000000 0.000000 
0.013352 0.027672 0.086507 0.189711 0.375315 0.679523 1.159640 1.940030 3.277808 4.491029 4.749778 4.040855 4.927045 8.417873 10.881860 7.454789 0.846842 0.011437 0.000012 0.000000 0.000000 0.000000 0.000000 0.000000 0.000000 0.000000 0.000000 0.000000 0.000000 0.000000 0.000000 0.000000 0.000000 0.000000 0.000000 0.000000 0.000000 0.000000 0.000000 0.000000 0.000000 0.000000 0.000000 0.000000 0.000000 0.000000 0.000000 0.000000 0.000000 0.000000 0.000000 0.000000 0.000000 0.000000 0.000000 0.000000 0.000000 0.000000 0.000000 0.000000 0.000000 0.000000 0.000000 0.000000 0.000000 0.000000 0.000000 0.000000 0.000000 0.000000 0.000000 0.000000 0.000000 0.000000 0.000000 0.000000 0.000000 0.000000 0.000000 0.000000 0.000000 0.000000 0.000000 0.000000 0.000000 0.000000 0.000000 0.000000 0.000000 0.000000 0.000000 0.000000 0.000000 0.000000 0.000000 0.000000 0.000000 0.000000 0.000000 0.000000 
0.021055 0.047692 0.134284 0.285266 0.551379 0.996735 1.697086 2.770064 4.477992 6.585514 7.831069 7.638326 7.958717 10.451665 9.767771 2.912639 0.090830 0.000326 0.000000 0.000000 0.000000 0.000000 0.000000 0.000000 0.000000 0.000000 0.000000 0.000000 0.000000 0.000000 0.000000 0.000000 0.000000 0.000000 0.000000 0.000000 0.000000 0.000000 0.000000 0.000000 0.000000 0.000000 0.000000 0.000000 0.000000 0.000000 0.000000 0.000000 0.000000 0.000000 0.000000 0.000000 0.000000 0.000000 0.000000 0.000000 0.000000 0.000000 0.000000 0.000000 0.000000 0.000000 0.000000 0.000000 0.000000 0.000000 0.000000 0.000000 0.000000 0.000000 0.000000 0.000000 0.000000 0.000000 0.000000 0.000000 0.000000 0.000000 0.000000 0.000000 0.000000 0.000000 0.000000 0.000000 0.000000 0.000000 0.000000 0.000000 0.000000 0.000000 0.000000 0.000000 0.000000 0.000000 0.000000 0.000000 0.000000 0.000000 0.000000 0.000000 
0.025156 0.057357 0.160340 0.344217 0.667024 1.206479 2.072888 3.449012 5.624206 9.116659 12.843846 15.216517 15.827725 12.750409 4.644714 0.249295 0.002140 0.000001 0.000000 0.000000 0.000000 0.000000 0.000000 0.000000 0.000000 0.000000 0.000000 0.000000 0.000000 0.000000 0.000000 0.000000 0.000000 0.000000 0.000000 0.000000 0.000000 0.000000 0.000000 0.000000 0.000000 0.000000 0.000000 0.000000 0.000000 0.000000 0.000000 0.000000 0.000000 0.000000 0.000000 0.000000 0.000000 0.000000 0.000000 0.000000 0.000000 0.000000 0.000000 0.000000 0.000000 0.000000 0.000000 0.000000 0.000000 0.000000 0.000000 0.000000 0.000000 0.000000 0.000000 0.000000 0.000000 0.000000 0.000000 0.000000 0.000000 0.000000 0.000000 0.000000 0.000000 0.000000 0.000000 0.000000 0.000000 0.000000 0.000000 0.000000 0.000000 0.000000 0.000000 0.000000 0.000000 0.000000 0.000000 0.000000 0.000000 0.000000 0.000000 0.000000 
0.025878 0.057703 0.166336 0.363273 0.705355 1.272385 2.180751 3.659676 6.148512 10.589953 18.849903 27.953639 30.246208 19.871323 2.666802 0.047362 0.000073 0.000000 0.000000 0.000000 0.000000 0.000000 0.000000 0.000000 0.000000 0.000000 0.000000 0.000000 0.000000 0.000000 0.000000 0.000000 0.000000 0.000000 0.000000 0.000000 0.000000 0.000000 0.000000 0.000000 0.000000 0.000000 0.000000 0.000000 0.000000 0.000000 0.000000 0.000000 0.000000 0.000000 0.000000 0.000000 0.000000 0.000000 0.000000 0.000000 0.000000 0.000000 0.000000 0.000000 0.000000 0.000000 0.000000 0.000000 0.000000 0.000000 0.000000 0.000000 0.000000 0.000000 0.000000 0.000000 0.000000 0.000000 0.000000 0.000000 0.000000 0.000000 0.000000 0.000000 0.000000 0.000000 0.000000 0.000000 0.000000 0.000000 0.000000 0.000000 0.000000 0.000000 0.000000 0.000000 0.000000 0.000000 0.000000 0.000000 0.000000 0.000000 0.000000 0.000000 
</DataArray>
<DataArray type="Float32" Name="varIV" format="ascii">
-0.026136 -0.025304 -0.022117 -0.017113 -0.012281 -0.008787 -0.006228 -0.000737 0.014968 0.031010 0.034303 0.031965 0.049387 0.096990 0.206128 0.361490 0.377891 0.135520 0.004181 0.000008 0.000000 0.000000 0.000000 0.000000 0.000000 0.000000 0.000000 0.000000 0.000000 0.000000 0.000000 0.000000 0.000000 0.000000 0.000000 0.000000 0.000000 0.000000 0.000000 0.000000 0.000000 0.000000 0.000000 0.000000 0.000000 0.000000 0.000000 0.000000 0.000000 0.000000 0.000000 0.000000 0.000000 0.000000 0.000000 0.000000 0.000000 0.000000 0.000000 0.000000 0.000000 0.000000 0.000000 0.000000 0.000000 0.000000 0.000000 0.000000 0.000000 0.000000 0.000000 0.000000 0.000000 0.000000 0.000000 0.000000 0.000000 0.000000 0.000000 0.000000 0.000000 0.000000 0.000000 0.000000 0.000000 0.000000 0.000000 0.000000 0.000000 0.000000 0.000000 0.000000 0.000000 0.000000 0.000000 0.000000 0.000000 0.000000 0.000000 0.000000 