<?xml version="1.0"?>
<VTKFile type="StructuredGrid">
<StructuredGrid WholeExtent=" 0 100 0 10 0 0">
<Piece Extent=" 0 100 0 10 0 0">
<Points>
<DataArray type="Float32" format="ascii" NumberOfComponents="3">
0.000000 0.000000 0.000000
0.010000 0.000000 0.000000
0.020000 0.000000 0.000000
0.030000 0.000000 0.000000
0.040000 0.000000 0.000000
0.050000 0.000000 0.000000
0.060000 0.000000 0.000000
0.070000 0.000000 0.000000
0.080000 0.000000 0.000000
0.090000 0.000000 0.000000
0.100000 0.000000 0.000000
0.110000 0.000000 0.000000
0.120000 0.000000 0.000000
0.130000 0.000000 0.000000
0.140000 0.000000 0.000000
0.150000 0.000000 0.000000
0.160000 0.000000 0.000000
0.170000 0.000000 0.000000
0.180000 0.000000 0.000000
0.190000 0.000000 0.000000
0.200000 0.000000 0.000000
0.210000 0.000000 0.000000
0.220000 0.000000 0.000000
0.230000 0.000000 0.000000
0.240000 0.000000 0.000000
0.250000 0.000000 0.000000
0.260000 0.000000 0.000000
0.270000 0.000000 0.000000
0.280000 0.000000 0.000000
0.290000 0.000000 0.000000
0.300000 0.000000 0.000000
0.310000 0.000000 0.000000
0.320000 0.000000 0.000000
0.330000 0.000000 0.000000
0.340000 0.000000 0.000000
0.350000 0.000000 0.000000
0.360000 0.000000 0.000000
0.370000 0.000000 0.000000
0.380000 0.000000 0.000000
0.390000 0.000000 0.000000
0.400000 0.000000 0.000000
0.410000 0.000000 0.000000
0.420000 0.000000 0.000000
0.430000 0.000000 0.000000
0.440000 0.000000 0.000000
0.450000 0.000000 0.000000
0.460000 0.000000 0.000000
0.470000 0.000000 0.000000
0.480000 0.000000 0.000000
0.490000 0.000000 0.000000
0.500000 0.000000 0.000000
0.510000 0.000000 0.000000
0.520000 0.000000 0.000000
0.530000 0.000000 0.000000
0.540000 0.000000 0.000000
0.550000 0.000000 0.000000
0.560000 0.000000 0.000000
0.570000 0.000000 0.000000
0.580000 0.000000 0.000000
0.590000 0.000000 0.000000
0.600000 0.000000 0.000000
0.610000 0.000000 0.000000
0.620000 0.000000 0.000000
0.630000 0.000000 0.000000
0.640000 0.000000 0.000000
0.650000 0.000000 0.000000
0.660000 0.000000 0.000000
0.670000 0.000000 0.000000
0.680000 0.000000 0.000000
0.690000 0.000000 0.000000
0.700000 0.000000 0.000000
0.710000 0.000000 0.000000
0.720000 0.000000 0.000000
0.730000 0.000000 0.000000
0.740000 0.000000 0.000000
0.750000 0.000000 0.000000
0.760000 0.000000 0.000000
0.770000 0.000000 0.000000
0.780000 0.000000 0.000000
0.790000 0.000000 0.000000
0.800000 0.000000 0.000000
0.810000 0.000000 0.000000
0.820000 0.000000 0.000000
0.830000 0.000000 0.000000
0.840000 0.000000 0.000000
0.850000 0.000000 0.000000
0.860000 0.000000 0.000000
0.870000 0.000000 0.000000
0.880000 0.000000 0.000000
0.890000 0.000000 0.000000
0.900000 0.000000 0.000000
0.910000 0.000000 0.000000
0.920000 0.000000 0.000000
0.930000 0.000000 0.000000
0.940000 0.000000 0.000000
0.950000 0.000000 0.000000
0.960000 0.000000 0.000000
0.970000 0.000000 0.000000
0.980000 0.000000 0.000000
0.990000 0.000000 0.000000
1.000000 0.000000 0.000000
0.000000 0.010000 0.000000
0.010000 0.010000 0.000000
0.020000 0.010000 0.000000
0.030000 0.010000 0.000000
0.040000 0.010000 0.000000
0.050000 0.010000 0.000000
0.060000 0.010000 0.000000
0.070000 0.010000 0.000000
0.080000 0.010000 0.000000
0.090000 0.010000 0.000000
0.100000 0.010000 0.000000
0.110000 0.010000 0.000000
0.120000 0.010000 0.000000
0.130000 0.010000 0.000000
0.140000 0.010000 0.000000
0.150000 0.010000 0.000000
0.160000 0.010000 0.000000
0.170000 0.010000 0.000000
0.180000 0.010000 0.000000
0.190000 0.010000 0.000000
0.200000 0.010000 0.000000
0.210000 0.010000 0.000000
0.220000 0.010000 0.000000
0.230000 0.010000 0.000000
0.240000 0.010000 0.000000
0.250000 0.010000 0.000000
0.260000 0.010000 0.000000
0.270000 0.010000 0.000000
0.280000 0.010000 0.000000
0.290000 0.010000 0.000000
0.300000 0.010000 0.000000
0.310000 0.010000 0.000000
0.320000 0.010000 0.000000
0.330000 0.010000 0.000000
0.340000 0.010000 0.000000
0.350000 0.010000 0.000000
0.360000 0.010000 0.000000
0.370000 0.010000 0.000000
0.380000 0.010000 0.000000
0.390000 0.010000 0.000000
0.400000 0.010000 0.000000
0.410000 0.010000 0.000000
0.420000 0.010000 0.000000
0.430000 0.010000 0.000000
0.440000 0.010000 0.000000
0.450000 0.010000 0.000000
0.460000 0.010000 0.000000
0.470000 0.010000 0.000000
0.480000 0.010000 0.000000
0.490000 0.010000 0.000000
0.500000 0.010000 0.000000
0.510000 0.010000 0.000000
0.520000 0.010000 0.000000
0.530000 0.010000 0.000000
0.540000 0.010000 0.000000
0.550000 0.010000 0.000000
0.560000 0.010000 0.000000
0.570000 0.010000 0.000000
0.580000 0.010000 0.000000
0.590000 0.010000 0.000000
0.600000 0.010000 0.000000
0.610000 0.010000 0.000000
0.620000 0.010000 0.000000
0.630000 0.010000 0.000000
0.640000 0.010000 0.000000
0.650000 0.010000 0.000000
0.660000 0.010000 0.000000
0.670000 0.010000 0.000000
0.680000 0.010000 0.000000
0.690000 0.010000 0.000000
0.700000 0.010000 0.000000
0.710000 0.010000 0.000000
0.720000 0.010000 0.000000
0.730000 0.010000 0.000000
0.740000 0.010000 0.000000
0.750000 0.010000 0.000000
0.760000 0.010000 0.000000
0.770000 0.010000 0.000000
0.780000 0.010000 0.000000
0.790000 0.010000 0.000000
0.800000 0.010000 0.000000
0.810000 0.010000 0.000000
0.820000 0.010000 0.000000
0.830000 0.010000 0.000000
0.840000 0.010000 0.000000
0.850000 0.010000 0.000000
0.860000 0.010000 0.000000
0.870000 0.010000 0.000000
0.880000 0.010000 0.000000
0.890000 0.010000 0.000000
0.900000 0.010000 0.000000
0.910000 0.010000 0.000000
0.920000 0.010000 0.000000
0.930000 0.010000 0.000000
0.940000 0.010000 0.000000
0.950000 0.010000 0.000000
0.960000 0.010000 0.000000
0.970000 0.010000 0.000000
0.980000 0.010000 0.000000
0.990000 0.010000 0.000000
1.000000 0.010000 0.000000
0.000000 0.020000 0.000000
0.010000 0.020000 0.000000
0.020000 0.020000 0.000000
0.030000 0.020000 0.000000
0.040000 0.020000 0.000000
0.050000 0.020000 0.000000
0.060000 0.020000 0.000000
0.070000 0.020000 0.000000
0.080000 0.020000 0.000000
0.090000 0.020000 0.000000
0.100000 0.020000 0.000000
0.110000 0.020000 0.000000
0.120000 0.020000 0.000000
0.130000 0.020000 0.000000
0.140000 0.020000 0.000000
0.150000 0.020000 0.000000
0.160000 0.020000 0.000000
0.170000 0.020000 0.000000
0.180000 0.020000 0.000000
0.190000 0.020000 0.000000
0.200000 0.020000 0.000000
0.210000 0.020000 0.000000
0.220000 0.020000 0.000000
0.230000 0.020000 0.000000
0.240000 0.020000 0.000000
0.250000 0.020000 0.000000
0.260000 0.020000 0.000000
0.270000 0.020000 0.000000
0.280000 0.020000 0.000000
0.290000 0.020000 0.000000
0.300000 0.020000 0.000000
0.310000 0.020000 0.000000
0.320000 0.020000 0.000000
0.330000 0.020000 0.000000
0.340000 0.020000 0.000000
0.350000 0.020000 0.000000
0.360000 0.020000 0.000000
0.370000 0.020000 0.000000
0.380000 0.020000 0.000000
0.390000 0.020000 0.000000
0.400000 0.020000 0.000000
0.410000 0.020000 0.000000
0.420000 0.020000 0.000000
0.430000 0.020000 0.000000
0.440000 0.020000 0.000000
0.450000 0.020000 0.000000
0.460000 0.020000 0.000000
0.470000 0.020000 0.000000
0.480000 0.020000 0.000000
0.490000 0.020000 0.000000
0.500000 0.020000 0.000000
0.510000 0.020000 0.000000
0.520000 0.020000 0.000000
0.530000 0.020000 0.000000
0.540000 0.020000 0.000000
0.550000 0.020000 0.000000
0.560000 0.020000 0.000000
0.570000 0.020000 0.000000
0.580000 0.020000 0.000000
0.590000 0.020000 0.000000
0.600000 0.020000 0.000000
0.610000 0.020000 0.000000
0.620000 0.020000 0.000000
0.630000 0.020000 0.000000
0.640000 0.020000 0.000000
0.650000 0.020000 0.000000
0.660000 0.020000 0.000000
0.670000 0.020000 0.000000
0.680000 0.020000 0.000000
0.690000 0.020000 0.000000
0.700000 0.020000 0.000000
0.710000 0.020000 0.000000
0.720000 0.020000 0.000000
0.730000 0.020000 0.000000
0.740000 0.020000 0.000000
0.750000 0.020000 0.000000
0.760000 0.020000 0.000000
0.770000 0.020000 0.000000
0.780000 0.020000 0.000000
0.790000 0.020000 0.000000
0.800000 0.020000 0.000000
0.810000 0.020000 0.000000
0.820000 0.020000 0.000000
0.830000 0.020000 0.000000
0.840000 0.020000 0.000000
0.850000 0.020000 0.000000
0.860000 0.020000 0.000000
0.870000 0.020000 0.000000
0.880000 0.020000 0.000000
0.890000 0.020000 0.000000
0.900000 0.020000 0.000000
0.910000 0.020000 0.000000
0.920000 0.020000 0.000000
0.930000 0.020000 0.000000
0.940000 0.020000 0.000000
0.950000 0.020000 0.000000
0.960000 0.020000 0.000000
0.970000 0.020000 0.000000
0.980000 0.020000 0.000000
0.990000 0.020000 0.000000
1.000000 0.020000 0.000000
0.000000 0.030000 0.000000
0.010000 0.030000 0.000000
0.020000 0.030000 0.000000
0.030000 0.030000 0.000000
0.040000 0.030000 0.000000
0.050000 0.030000 0.000000
0.060000 0.030000 0.000000
0.070000 0.030000 0.000000
0.080000 0.030000 0.000000
0.090000 0.030000 0.000000
0.100000 0.030000 0.000000
0.110000 0.030000 0.000000
0.120000 0.030000 0.000000
0.130000 0.030000 0.000000
0.140000 0.030000 0.000000
0.150000 0.030000 0.000000
0.160000 0.030000 0.000000
0.170000 0.030000 0.000000
0.180000 0.030000 0.000000
0.190000 0.030000 0.000000
0.200000 0.030000 0.000000
0.210000 0.030000 0.000000
0.220000 0.030000 0.000000
0.230000 0.030000 0.000000
0.240000 0.030000 0.000000
0.250000 0.030000 0.000000
0.260000 0.030000 0.000000
0.270000 0.030000 0.000000
0.280000 0.030000 0.000000
0.290000 0.030000 0.000000
0.300000 0.030000 0.000000
0.310000 0.030000 0.000000
0.320000 0.030000 0.000000
0.330000 0.030000 0.000000
0.340000 0.030000 0.000000
0.350000 0.030000 0.000000
0.360000 0.030000 0.000000
0.370000 0.030000 0.000000
0.380000 0.030000 0.000000
0.390000 0.030000 0.000000
0.400000 0.030000 0.000000
0.410000 0.030000 0.000000
0.420000 0.030000 0.000000
0.430000 0.030000 0.000000
0.440000 0.030000 0.000000
0.450000 0.030000 0.000000
0.460000 0.030000 0.000000
0.470000 0.030000 0.000000
0.480000 0.030000 0.000000
0.490000 0.030000 0.000000
0.500000 0.030000 0.000000
0.510000 0.030000 0.000000
0.520000 0.030000 0.000000
0.530000 0.030000 0.000000
0.540000 0.030000 0.000000
0.550000 0.030000 0.000000
0.560000 0.030000 0.000000
0.570000 0.030000 0.000000
0.580000 0.030000 0.000000
[...]
<CellData Scalars=" varID varIU varIV">
<DataArray type="Float32" Name="varID" format="ascii">
0.033294 0.033015 0.032245 0.031040 0.030379 0.030718 0.032660 0.038040 0.049781 0.073509 0.120146 0.208760 0.350018 0.493449 0.680467 1.075213 1.835947 2.465793 2.298601 1.289449 1.019211 1.000490 1.000000 1.000000 1.000000 1.000000 1.000000 1.000000 1.000000 1.000000 1.000000 1.000000 1.000000 1.000000 1.000000 1.000000 1.000000 1.000000 1.000000 1.000000 1.000000 1.000000 1.000000 1.000000 1.000000 1.000000 1.000000 1.000000 1.000000 1.000000 1.000000 1.000000 1.000000 1.000000 1.000000 1.000000 1.000000 1.000000 1.000000 1.000000 1.000000 1.000000 1.000000 1.000000 1.000000 1.000000 1.000000 1.000000 1.000000 1.000000 1.000000 1.000000 1.000000 1.000000 1.000000 1.000000 1.000000 1.000000 1.000000 1.000000 1.000000 1.000000 1.000000 1.000000 1.000000 1.000000 1.000000 1.000000 1.000000 1.000000 1.000000 1.000000 1.000000 1.000000 1.000000 1.000000 1.000000 1.000000 1.000000 1.000000 
0.075274 0.073781 0.069443 0.063027 0.056898 0.053913 0.054067 0.058084 0.070246 0.096492 0.146875 0.239865 0.383561 0.520408 0.715014 1.134549 1.925658 2.529733 2.270540 1.240566 1.015083 1.000328 1.000000 1.000000 1.000000 1.000000 1.000000 1.000000 1.000000 1.000000 1.000000 1.000000 1.000000 1.000000 1.000000 1.000000 1.000000 1.000000 1.000000 1.000000 1.000000 1.000000 1.000000 1.000000 1.000000 1.000000 1.000000 1.000000 1.000000 1.000000 1.000000 1.000000 1.000000 1.000000 1.000000 1.000000 1.000000 1.000000 1.000000 1.000000 1.000000 1.000000 1.000000 1.000000 1.000000 1.000000 1.000000 1.000000 1.000000 1.000000 1.000000 1.000000 1.000000 1.000000 1.000000 1.000000 1.000000 1.000000 1.000000 1.000000 1.000000 1.000000 1.000000 1.000000 1.000000 1.000000 1.000000 1.000000 1.000000 1.000000 1.000000 1.000000 1.000000 1.000000 1.000000 1.000000 1.000000 1.000000 1.000000 1.000000 
0.156601 0.152681 0.141839 0.127464 0.114831 0.106932 0.104590 0.106930 0.117672 0.144456 0.199106 0.300325 0.446210 0.574083 0.788164 1.255845 2.081773 2.571990 2.127970 1.160817 1.009450 1.000157 1.000000 1.000000 1.000000 1.000000 1.000000 1.000000 1.000000 1.000000 1.000000 1.000000 1.000000 1.000000 1.000000 1.000000 1.000000 1.000000 1.000000 1.000000 1.000000 1.000000 1.000000 1.000000 1.000000 1.000000 1.000000 1.000000 1.000000 1.000000 1.000000 1.000000 1.000000 1.000000 1.000000 1.000000 1.000000 1.000000 1.000000 1.000000 1.000000 1.000000 1.000000 1.000000 1.000000 1.000000 1.000000 1.000000 1.000000 1.000000 1.000000 1.000000 1.000000 1.000000 1.000000 1.000000 1.000000 1.000000 1.000000 1.000000 1.000000 1.000000 1.000000 1.000000 1.000000 1.000000 1.000000 1.000000 1.000000 1.000000 1.000000 1.000000 1.000000 1.000000 1.000000 1.000000 1.000000 1.000000 1.000000 1.000000 
0.265313 0.259627 0.247491 0.232220 0.215747 0.203599 0.197421 0.197598 0.206169 0.232087 0.292093 0.395369 0.539588 0.662035 0.913499 1.461783 2.303451 2.611201 1.875065 1.091694 1.004371 1.000038 1.000000 1.000000 1.000000 1.000000 1.000000 1.000000 1.000000 1.000000 1.000000 1.000000 1.000000 1.000000 1.000000 1.000000 1.000000 1.000000 1.000000 1.000000 1.000000 1.000000 1.000000 1.000000 1.000000 1.000000 1.000000 1.000000 1.000000 1.000000 1.000000 1.000000 1.000000 1.000000 1.000000 1.000000 1.000000 1.000000 1.000000 1.000000 1.000000 1.000000 1.000000 1.000000 1.000000 1.000000 1.000000 1.000000 1.000000 1.000000 1.000000 1.000000 1.000000 1.000000 1.000000 1.000000 1.000000 1.000000 1.000000 1.000000 1.000000 1.000000 1.000000 1.000000 1.000000 1.000000 1.000000 1.000000 1.000000 1.000000 1.000000 1.000000 1.000000 1.000000 1.000000 1.000000 1.000000 1.000000 1.000000 1.000000 
0.362975 0.357566 0.349623 0.340755 0.332723 0.327544 0.325383 0.326279 0.334003 0.362249 0.440755 0.541119 0.674171 0.798806 1.109001 1.785675 2.562441 2.576975 1.529452 1.039710 1.001267 1.000002 1.000000 1.000000 1.000000 1.000000 1.000000 1.000000 1.000000 1.000000 1.000000 1.000000 1.000000 1.000000 1.000000 1.000000 1.000000 1.000000 1.000000 1.000000 1.000000 1.000000 1.000000 1.000000 1.000000 1.000000 1.000000 1.000000 1.000000 1.000000 1.000000 1.000000 1.000000 1.000000 1.000000 1.000000 1.000000 1.000000 1.000000 1.000000 1.000000 1.000000 1.000000 1.000000 1.000000 1.000000 1.000000 1.000000 1.000000 1.000000 1.000000 1.000000 1.000000 1.000000 1.000000 1.000000 1.000000 1.000000 1.000000 1.000000 1.000000 1.000000 1.000000 1.000000 1.000000 1.000000 1.000000 1.000000 1.000000 1.000000 1.000000 1.000000 1.000000 1.000000 1.000000 1.000000 1.000000 1.000000 1.000000 1.000000 
0.384443 0.385068 0.388893 0.395110 0.402976 0.413530 0.428687 0.449411 0.479490 0.532529 0.643208 0.767286 0.885498 1.014210 1.410582 2.225869 2.744892 2.319431 1.207856 1.011979 1.000199 1.000000 1.000000 1.000000 1.000000 1.000000 1.000000 1.000000 1.000000 1.000000 1.000000 1.000000 1.000000 1.000000 1.000000 1.000000 1.000000 1.000000 1.000000 1.000000 1.000000 1.000000 1.000000 1.000000 1.000000 1.000000 1.000000 1.000000 1.000000 1.000000 1.000000 1.000000 1.000000 1.000000 1.000000 1.000000 1.000000 1.000000 1.000000 1.000000 1.000000 1.000000 1.000000 1.000000 1.000000 1.000000 1.000000 1.000000 1.000000 1.000000 1.000000 1.000000 1.000000 1.000000 1.000000 1.000000 1.000000 1.000000 1.000000 1.000000 1.000000 1.000000 1.000000 1.000000 1.000000 1.000000 1.000000 1.000000 1.000000 1.000000 1.000000 1.000000 1.000000 1.000000 1.000000 1.000000 1.000000 1.000000 1.000000 1.000000 
0.410797 0.418516 0.433403 0.458262 0.490582 0.530823 0.578656 0.634298 0.700208 0.787029 0.936569 1.125070 1.250367 1.415219 1.892768 2.650103 2.759708 1.739405 1.062329 1.002296 1.000008 1.000000 1.000000 1.000000 1.000000 1.000000 1.000000 1.000000 1.000000 1.000000 1.000000 1.000000 1.000000 1.000000 1.000000 1.000000 1.000000 1.000000 1.000000 1.000000 1.000000 1.000000 1.000000 1.000000 1.000000 1.000000 1.000000 1.000000 1.000000 1.000000 1.000000 1.000000 1.000000 1.000000 1.000000 1.000000 1.000000 1.000000 1.000000 1.000000 1.000000 1.000000 1.000000 1.000000 1.000000 1.000000 1.000000 1.000000 1.000000 1.000000 1.000000 1.000000 1.000000 1.000000 1.000000 1.000000 1.000000 1.000000 1.000000 1.000000 1.000000 1.000000 1.000000 1.000000 1.000000 1.000000 1.000000 1.000000 1.000000 1.000000 1.000000 1.000000 1.000000 1.000000 1.000000 1.000000 1.000000 1.000000 1.000000 1.000000 
0.439385 0.451407 0.473653 0.512003 0.564704 0.635108 0.726835 0.842258 0.984041 1.157064 1.384342 1.699731 1.968381 2.188042 2.586527 2.869725 2.386779 1.212132 1.012144 1.000187 1.000000 1.000000 1.000000 1.000000 1.000000 1.000000 1.000000 1.000000 1.000000 1.000000 1.000000 1.000000 1.000000 1.000000 1.000000 1.000000 1.000000 1.000000 1.000000 1.000000 1.000000 1.000000 1.000000 1.000000 1.000000 1.000000 1.000000 1.000000 1.000000 1.000000 1.000000 1.000000 1.000000 1.000000 1.000000 1.000000 1.000000 1.000000 1.000000 1.000000 1.000000 1.000000 1.000000 1.000000 1.000000 1.000000 1.000000 1.000000 1.000000 1.000000 1.000000 1.000000 1.000000 1.000000 1.000000 1.000000 1.000000 1.000000 1.000000 1.000000 1.000000 1.000000 1.000000 1.000000 1.000000 1.000000 1.000000 1.000000 1.000000 1.000000 1.000000 1.000000 1.000000 1.000000 1.000000 1.000000 1.000000 1.000000 1.000000 1.000000 
0.468509 0.483983 0.512121 0.560272 0.627360 0.718745 0.841936 1.004702 1.220328 1.507467 1.890114 2.438919 3.126351 3.695150 3.969953 3.295252 1.476398 1.034114 1.000941 1.000001 1.000000 1.000000 1.000000 1.000000 1.000000 1.000000 1.000000 1.000000 1.000000 1.000000 1.000000 1.000000 1.000000 1.000000 1.000000 1.000000 1.000000 1.000000 1.000000 1.000000 1.000000 1.000000 1.000000 1.000000 1.000000 1.000000 1.000000 1.000000 1.000000 1.000000 1.000000 1.000000 1.000000 1.000000 1.000000 1.000000 1.000000 1.000000 1.000000 1.000000 1.000000 1.000000 1.000000 1.000000 1.000000 1.000000 1.000000 1.000000 1.000000 1.000000 1.000000 1.000000 1.000000 1.000000 1.000000 1.000000 1.000000 1.000000 1.000000 1.000000 1.000000 1.000000 1.000000 1.000000 1.000000 1.000000 1.000000 1.000000 1.000000 1.000000 1.000000 1.000000 1.000000 1.000000 1.000000 1.000000 1.000000 1.000000 1.000000 1.000000 
0.482161 0.499943 0.532142 0.586620 0.662533 0.765556 0.904760 1.090849 1.344773 1.704325 2.239942 3.087848 4.481779 5.633290 5.547617 3.619394 1.370511 1.019508 1.000376 1.000000 1.000000 1.000000 1.000000 1.000000 1.000000 1.000000 1.000000 1.000000 1.000000 1.000000 1.000000 1.000000 1.000000 1.000000 1.000000 1.000000 1.000000 1.000000 1.000000 1.000000 1.000000 1.000000 1.000000 1.000000 1.000000 1.000000 1.000000 1.000000 1.000000 1.000000 1.000000 1.000000 1.000000 1.000000 1.000000 1.000000 1.000000 1.000000 1.000000 1.000000 1.000000 1.000000 1.000000 1.000000 1.000000 1.000000 1.000000 1.000000 1.000000 1.000000 1.000000 1.000000 1.000000 1.000000 1.000000 1.000000 1.000000 1.000000 1.000000 1.000000 1.000000 1.000000 1.000000 1.000000 1.000000 1.000000 1.000000 1.000000 1.000000 1.000000 1.000000 1.000000 1.000000 1.000000 1.000000 1.000000 1.000000 1.000000 1.000000 1.000000 
</DataArray>
<DataArray type="Float32" Name="varIU" format="ascii">
0.027615 0.082446 0.131918 0.169719 0.197829 0.221069 0.248734 0.299542 0.400864 0.601063 0.969120 1.577521 2.294385 2.330079 2.668518 4.327110 7.845760 9.976459 6.530478 0.750175 0.011594 0.000016 0.000000 0.000000 0.000000 0.000000 0.000000 0.000000 0.000000 0.000000 0.000000 0.000000 0.000000 0.000000 0.000000 0.000000 0.000000 0.000000 0.000000 0.000000 0.000000 0.000000 0.000000 0.000000 0.000000 0.000000 0.000000 0.000000 0.000000 0.000000 0.000000 0.000000 0.000000 0.000000 0.000000 0.000000 0.000000 0.000000 0.000000 0.000000 0.000000 0.000000 0.000000 0.000000 0.000000 0.000000 0.000000 0.000000 0.000000 0.000000 0.000000 0.000000 0.000000 0.000000 0.000000 0.000000 0.000000 0.000000 0.000000 0.000000 0.000000 0.000000 0.000000 0.000000 0.000000 0.000000 0.000000 0.000000 0.000000 0.000000 0.000000 0.000000 0.000000 0.000000 0.000000 0.000000 0.000000 0.000000 0.000000 0.000000 
0.030905 0.092742 0.148172 0.190344 0.224581 0.261327 0.305014 0.365383 0.478547 0.696112 1.080497 1.714991 2.411190 2.368334 2.781006 4.567888 8.164184 10.013549 5.989396 0.560528 0.007375 0.000008 0.000000 0.000000 0.000000 0.000000 0.000000 0.000000 0.000000 0.000000 0.000000 0.000000 0.000000 0.000000 0.000000 0.000000 0.000000 0.000000 0.000000 0.000000 0.000000 0.000000 0.000000 0.000000 0.000000 0.000000 0.000000 0.000000 0.000000 0.000000 0.000000 0.000000 0.000000 0.000000 0.000000 0.000000 0.000000 0.000000 0.000000 0.000000 0.000000 0.000000 0.000000 0.000000 0.000000 0.000000 0.000000 0.000000 0.000000 0.000000 0.000000 0.000000 0.000000 0.000000 0.000000 0.000000 0.000000 0.000000 0.000000 0.000000 0.000000 0.000000 0.000000 0.000000 0.000000 0.000000 0.000000 0.000000 0.000000 0.000000 0.000000 0.000000 0.000000 0.000000 0.000000 0.000000 0.000000 0.000000 0.000000 0.000000 
0.024403 0.074253 0.119913 0.164233 0.213007 0.274441 0.359554 0.467584 0.621340 0.888860 1.337944 2.001540 2.601120 2.446100 3.024142 5.062841 8.729652 9.882519 4.983239 0.333781 0.003363 0.000002 0.000000 0.000000 0.000000 0.000000 0.000000 0.000000 0.000000 0.000000 0.000000 0.000000 0.000000 0.000000 0.000000 0.000000 0.000000 0.000000 0.000000 0.000000 0.000000 0.000000 0.000000 0.000000 0.000000 0.000000 0.000000 0.000000 0.000000 0.000000 0.000000 0.000000 0.000000 0.000000 0.000000 0.000000 0.000000 0.000000 0.000000 0.000000 0.000000 0.000000 0.000000 0.000000 0.000000 0.000000 0.000000 0.000000 0.000000 0.000000 0.000000 0.000000 0.000000 0.000000 0.000000 0.000000 0.000000 0.000000 0.000000 0.000000 0.000000 0.000000 0.000000 0.000000 0.000000 0.000000 0.000000 0.000000 0.000000 0.000000 0.000000 0.000000 0.000000 0.000000 0.000000 0.000000 0.000000 0.000000 0.000000 0.000000 
0.006800 0.022154 0.047444 0.093170 0.165031 0.263826 0.395432 0.565600 0.792724 1.165054 1.763080 2.455202 2.893339 2.651756 3.458850 5.894995 9.466813 9.461306 3.421441 0.143969 0.000844 0.000000 0.000000 0.000000 0.000000 0.000000 0.000000 0.000000 0.000000 0.000000 0.000000 0.000000 0.000000 0.000000 0.000000 0.000000 0.000000 0.000000 0.000000 0.000000 0.000000 0.000000 0.000000 0.000000 0.000000 0.000000 0.000000 0.000000 0.000000 0.000000 0.000000 0.000000 0.000000 0.000000 0.000000 0.000000 0.000000 0.000000 0.000000 0.000000 0.000000 0.000000 0.000000 0.000000 0.000000 0.000000 0.000000 0.000000 0.000000 0.000000 0.000000 0.000000 0.000000 0.000000 0.000000 0.000000 0.000000 0.000000 0.000000 0.000000 0.000000 0.000000 0.000000 0.000000 0.000000 0.000000 0.000000 0.000000 0.000000 0.000000 0.000000 0.000000 0.000000 0.000000 0.000000 0.000000 0.000000 0.000000 0.000000 0.000000 
-0.006285 -0.017577 -0.011620 0.027504 0.112529 0.245043 0.427521 0.662290 0.962640 1.450376 2.338451 3.137884 3.417476 3.124899 4.180590 7.160510 10.175401 8.267894 1.634604 0.036545 0.000088 0.000000 0.000000 0.000000 0.000000 0.000000 0.000000 0.000000 0.000000 0.000000 0.000000 0.000000 0.000000 0.000000 0.000000 0.000000 0.000000 0.000000 0.000000 0.000000 0.000000 0.000000 0.000000 0.000000 0.000000 0.000000 0.000000 0.000000 0.000000 0.000000 0.000000 0.000000 0.000000 0.000000 0.000000 0.000000 0.000000 0.000000 0.000000 0.000000 0.000000 0.000000 0.000000 0.000000 0.000000 0.000000 0.000000 0.000000 0.000000 0.000000 0.000000 0.000000 0.000000 0.000000 0.000000 0.000000 0.000000 0.000000 0.000000 0.000000 0.000000 0.000000 0.000000 0.000000 0.000000 0.000000 0.000000 0.000000 0.000000 0.000000 0.000000 0.000000 0.000000 0.000000 0.000000 0.000000 0.000000 0.000000 0.000000 0.000000 
-0.006480 -0.021790 -0.014707 0.018927 0.104041 0.245884 0.453526 0.749649 1.173686 1.841023 3.057051 4.147761 4.484085 4.039337 5.366513 8.782471 10.268670 5.747378 0.444503 0.004699 0.000003 0.000000 0.000000 0.000000 0.000000 0.000000 0.000000 0.000000 0.000000 0.000000 0.000000 0.000000 0.000000 0.000000 0.000000 0.000000 0.000000 0.000000 0.000000 0.000000 0.000000 0.000000 0.000000 0.000000 0.000000 0.000000 0.000000 0.000000 0.000000 0.000000 0.000000 0.000000 0.000000 0.000000 0.000000 0.000000 0.000000 0.000000 0.000000 0.000000 0.000000 0.000000 0.000000 0.000000 0.000000 0.000000 0.000000 0.000000 0.000000 0.000000 0.000000 0.000000 0.000000 0.000000 0.000000 0.000000 0.000000 0.000000 0.000000 0.000000 0.000000 0.000000 0.000000 0.000000 0.000000 0.000000 0.000000 0.000000 0.000000 0.000000 0.000000 0.000000 0.000000 0.000000 0.000000 0.000000 0.000000 0.000000 0.000000 0.000000 
-0.000295 -0.005756 0.016215 0.061287 0.162690 0.334307 0.601156 0.996962 1.576653 2.469039 4.041601 5.715376 6.395133 6.012876 7.407223 10.175593 9.113309 2.458509 0.071721 0.000247 0.000000 0.000000 0.000000 0.000000 0.000000 0.000000 0.000000 0.000000 0.000000 0.000000 0.000000 0.000000 0.000000 0.000000 0.000000 0.000000 0.000000 0.000000 0.000000 0.000000 0.000000 0.000000 0.000000 0.000000 0.000000 0.000000 0.000000 0.000000 0.000000 0.000000 0.000000 0.000000 0.000000 0.000000 0.000000 0.000000 0.000000 0.000000 0.000000 0.000000 0.000000 0.000000 0.000000 0.000000 0.000000 0.000000 0.000000 0.000000 0.000000 0.000000 0.000000 0.000000 0.000000 0.000000 0.000000 0.000000 0.000000 0.000000 0.000000 0.000000 0.000000 0.000000 0.000000 0.000000 0.000000 0.000000 0.000000 0.000000 0.000000 0.000000 0.000000 0.000000 0.000000 0.000000 0.000000 0.000000 0.000000 0.000000 0.000000 0.000000 
0.001752 0.000439 0.032946 0.092209 0.217997 0.435407 0.784137 1.316410 2.105687 3.286473 5.182243 7.912303 9.822663 10.392033 10.735317 10.426156 5.608492 0.419748 0.004320 0.000003 0.000000 0.000000 0.000000 0.000000 0.000000 0.000000 0.000000 0.000000 0.000000 0.000000 0.000000 0.000000 0.000000 0.000000 0.000000 0.000000 0.000000 0.000000 0.000000 0.000000 0.000000 0.000000 0.000000 0.000000 0.000000 0.000000 0.000000 0.000000 0.000000 0.000000 0.000000 0.000000 0.000000 0.000000 0.000000 0.000000 0.000000 0.000000 0.000000 0.000000 0.000000 0.000000 0.000000 0.000000 0.000000 0.000000 0.000000 0.000000 0.000000 0.000000 0.000000 0.000000 0.000000 0.000000 0.000000 0.000000 0.000000 0.000000 0.000000 0.000000 0.000000 0.000000 0.000000 0.000000 0.000000 0.000000 0.000000 0.000000 0.000000 0.000000 0.000000 0.000000 0.000000 0.000000 0.000000 0.000000 0.000000 0.000000 0.000000 0.000000 
0.001878 0.000133 0.037717 0.107150 0.251326 0.499256 0.894128 1.512060 2.464623 3.941609 6.274802 10.240934 15.236611 18.502405 18.330787 10.235587 1.130195 0.021170 0.000038 0.000000 0.000000 0.000000 0.000000 0.000000 0.000000 0.000000 0.000000 0.000000 0.000000 0.000000 0.000000 0.000000 0.000000 0.000000 0.000000 0.000000 0.000000 0.000000 0.000000 0.000000 0.000000 0.000000 0.000000 0.000000 0.000000 0.000000 0.000000 0.000000 0.000000 0.000000 0.000000 0.000000 0.000000 0.000000 0.000000 0.000000 0.000000 0.000000 0.000000 0.000000 0.000000 0.000000 0.000000 0.000000 0.000000 0.000000 0.000000 0.000000 0.000000 0.000000 0.000000 0.000000 0.000000 0.000000 0.000000 0.000000 0.000000 0.000000 0.000000 0.000000 0.000000 0.000000 0.000000 0.000000 0.000000 0.000000 0.000000 0.000000 0.000000 0.000000 0.000000 0.000000 0.000000 0.000000 0.000000 0.000000 0.000000 0.000000 0.000000 0.000000 
0.000674 -0.004309 0.033998 0.108263 0.262474 0.526765 0.943361 1.588441 2.585145 4.172650 6.858363 11.791358 21.189436 29.584939 29.540355 15.239549 1.354803 0.016510 0.000014 0.000000 0.000000 0.000000 0.000000 0.000000 0.000000 0.000000 0.000000 0.000000 0.000000 0.000000 0.000000 0.000000 0.000000 0.000000 0.000000 0.000000 0.000000 0.000000 0.000000 0.000000 0.000000 0.000000 0.000000 0.000000 0.000000 0.000000 0.000000 0.000000 0.000000 0.000000 0.000000 0.000000 0.000000 0.000000 0.000000 0.000000 0.000000 0.000000 0.000000 0.000000 0.000000 0.000000 0.000000 0.000000 0.000000 0.000000 0.000000 0.000000 0.000000 0.000000 0.000000 0.000000 0.000000 0.000000 0.000000 0.000000 0.000000 0.000000 0.000000 0.000000 0.000000 0.000000 0.000000 0.000000 0.000000 0.000000 0.000000 0.000000 0.000000 0.000000 0.000000 0.000000 0.000000 0.000000 0.000000 0.000000 0.000000 0.000000 0.000000 0.000000 
</DataArray>
<DataArray type="Float32" Name="varIV" format="ascii">
-0.022683 -0.022195 -0.019793 -0.015696 -0.010830 -0.006636 -0.003885 -0.002485 -0.002093 -0.000559 0.016976 0.047316 0.071686 0.069663 0.092534 0.170359 0.300430 0.351356 0.173734 0.010286 0.000038 0.000000 0.000000 0.000000 0.000000 0.000000 0.000000 0.000000 0.000000 0.000000 0.000000 0.000000 0.000000 0.000000 0.000000 0.000000 0.000000 0.000000 0.000000 0.000000 0.000000 0.000000 0.000000 0.000000 0.000000 0.000000 0.000000 0.000000 0.000000 0.000000 0.000000 0.000000 0.000000 0.000000 0.000000 0.000000 0.000000 0.000000 0.000000 0.000000 0.000000 0.000000 0.000000 0.000000 0.000000 0.000000 0.000000 0.000000 0.000000 0.000000 0.000000 0.000000 0.000000 0.000000 0.000000 0.000000 0.000000 0.000000 0.000000 0.000000 0.000000 0.000000 0.000000 0.000000 0.000000 0.000000 0.000000 0.000000 0.000000 0.000000 0.000000 0.000000 0.000000 0.000000 0.000000 0.000000 0.000000 0.000000 0.000000 0.000000 